
Predictions were generated on 28-Nov-2023 at 00:47:00 using OpenFAST, compiled as a 64-bit application using double precision at commit v3.5.1-dirty
 linked with  NWTC Subroutine Library; ElastoDyn; InflowWind; AeroDyn; ServoDyn

Description from the FAST input file: FAST          Certification - Test #18: NREL 5.0 MW Baseline Wind Turbine (Onshore)

Time	Wind1VelX	Wind1VelY	Wind1VelZ	OoPDefl1	IPDefl1	TwstDefl1	BldPitch1	Azimuth	RotSpeed	GenSpeed	TTDspFA	TTDspSS	TTDspTwst	Spn2MLxb1	Spn2MLyb1	RootFxb1	RootFyb1	RootFzb1	RootMxb1	RootMyb1	RootMyc1	RootMyc2	RootMyc3	RootMzb1	RotTorq	LSSGagMya	LSSGagMza	YawBrFxp	YawBrFyp	YawBrFzp	YawBrMxp	YawBrMyp	YawBrMzp	TwrBsFxt	TwrBsFyt	TwrBsFzt	TwrBsMxt	TwrBsMyt	TwrBsMzt	NcIMURAys	NcIMUTAxs	RtFldFxh	RtFldFyh	RtFldFzh	RtFldMxh	RtFldMyh	RtFldMzh	RtVAvgxh	RtFldCp	RtFldCt	RtArea	RtSpeed	RtTSR	GenPwr	GenTq
(s)	(m/s)	(m/s)	(m/s)	(m)	(m)	(deg)	(deg)	(deg)	(rpm)	(rpm)	(m)	(m)	(deg)	(kN-m)	(kN-m)	(kN)	(kN)	(kN)	(kN-m)	(kN-m)	(kN-m)	(kN-m)	(kN-m)	(kN-m)	(kN-m)	(kN-m)	(kN-m)	(kN)	(kN)	(kN)	(kN-m)	(kN-m)	(kN-m)	(kN)	(kN)	(kN)	(kN-m)	(kN-m)	(kN-m)	(deg/s^2)	(m/s^2)	(N)	(N)	(N)	(N-m)	(N-m)	(N-m)	(m/s)	(-)	(-)	(m^2)	(rpm)	(-)	(kW)	(kN-m)
    0.0000	 5.978E+00	 5.115E-01	 2.130E+00	 0.000E+00	 0.000E+00	 0.000E+00	 5.000E+00	 0.000E+00	 8.000E+00	 7.760E+02	 0.000E+00	-0.000E+00	 0.000E+00	 2.595E+00	-7.585E+00	 9.479E+00	-2.405E-01	 1.019E+02	 1.288E+00	 8.235E+01	 8.192E+01	 5.888E+01	 1.502E+02	 1.101E-15	-5.107E-13	-1.935E+03	-6.764E+01	 1.560E+01	-1.272E-01	-3.323E+03	-1.857E+00	-4.092E+02	-3.092E-13	-1.418E+01	 3.535E-02	-6.730E+03	-6.884E-01	-3.279E+02	-3.092E-13	-9.618E-01	-1.731E-01	 1.168E+05	-1.122E+03	 2.361E+03	 5.868E+05	 3.182E+05	-4.006E+04	 5.738E+00	 3.413E-01	 4.652E-01	 1.245E+04	 8.000E+00	 9.189E+00	 1.181E+03	 1.540E+01
    0.1000	 1.049E+01	-0.000E+00	 0.000E+00	 1.346E-01	-2.870E-02	 0.000E+00	 5.000E+00	 4.789E+00	 7.932E+00	 7.568E+02	-4.477E-04	-1.484E-04	 0.000E+00	-6.121E+01	 6.135E+01	 1.990E+01	-2.501E+01	 1.010E+02	 3.324E+02	 3.927E+02	 3.622E+02	 2.918E+02	 4.956E+02	-2.773E+01	 9.771E+02	-2.032E+03	-3.566E+01	-2.114E-04	 3.090E+01	-3.348E+03	 9.034E+02	-6.300E+02	-2.752E+02	 2.620E+01	-8.426E+00	-6.755E+03	 3.196E+00	 6.981E+02	-2.752E+02	-8.590E-03	-2.773E-02	 1.762E+05	-1.987E+03	 3.078E+03	 1.037E+06	 5.315E+05	-2.507E+04	 9.597E+00	 1.279E-01	 2.509E-01	 1.245E+04	 7.941E+00	 5.454E+00	 1.096E+03	 1.465E+01
    0.2000	 8.512E+00	-0.000E+00	 0.000E+00	 5.550E-01	-1.873E-01	 0.000E+00	 5.000E+00	 9.511E+00	 7.845E+00	 7.562E+02	-1.190E-03	-1.146E-03	 0.000E+00	 9.397E+01	 2.943E+02	 3.813E+01	-2.950E+01	 1.014E+02	 7.062E+02	 1.211E+03	 1.145E+03	 1.046E+03	 1.358E+03	-1.184E+01	 1.669E+03	-2.258E+03	 9.414E+01	 2.254E+00	 1.051E+01	-3.411E+03	 1.622E+03	-1.060E+03	-3.563E+02	 4.869E+01	 6.123E+01	-6.818E+03	-1.941E+03	 1.287E+03	-3.563E+02	 1.009E+00	 1.513E-01	 1.824E+05	-2.708E+03	 2.773E+03	 1.139E+06	 5.489E+05	-6.010E+04	 6.876E+00	 3.782E-01	 5.057E-01	 1.245E+04	 7.862E+00	 7.538E+00	 1.094E+03	 1.463E+01
    0.3000	 1.040E+01	-0.000E+00	 0.000E+00	 1.162E+00	-3.458E-01	 0.000E+00	 5.000E+00	 1.425E+01	 7.947E+00	 7.655E+02	-6.069E-04	-3.131E-03	 0.000E+00	 1.413E+02	 6.015E+02	 7.507E+01	-4.559E+01	 1.066E+02	 1.114E+03	 2.502E+03	 2.395E+03	 2.164E+03	 2.626E+03	-2.358E+01	 2.211E+03	-2.354E+03	 1.553E+02	 3.786E+01	 1.839E+01	-3.480E+03	 2.125E+03	-1.211E+03	-5.823E+02	 9.291E+00	 6.652E+01	-6.888E+03	-1.983E+03	 2.423E+02	-5.823E+02	 5.100E-02	 3.533E-01	 1.759E+05	-2.669E+03	 3.444E+03	 1.089E+06	 5.172E+05	-2.454E+05	 8.354E+00	 2.036E-01	 3.303E-01	 1.246E+04	 7.946E+00	 6.272E+00	 1.134E+03	 1.499E+01
    0.4000	 8.761E+00	-0.000E+00	 0.000E+00	 1.818E+00	-4.549E-01	 0.000E+00	 5.000E+00	 1.902E+01	 7.931E+00	 7.790E+02	 3.365E-03	-5.893E-03	 0.000E+00	 5.760E+01	 9.272E+02	 1.077E+02	-6.704E+01	 1.075E+02	 1.381E+03	 3.800E+03	 3.665E+03	 3.189E+03	 3.762E+03	-1.278E+01	 1.957E+03	-2.245E+03	 2.299E+02	 5.997E+01	 3.049E+01	-3.527E+03	 1.833E+03	-1.170E+03	-7.961E+02	 3.988E-01	 1.875E+01	-6.935E+03	-3.016E+02	 4.653E+02	-7.961E+02	 1.797E-01	 5.371E-01	 1.721E+05	-2.357E+03	 3.736E+03	 1.079E+06	 4.507E+05	-4.811E+05	 6.789E+00	 3.753E-01	 4.891E-01	 1.246E+04	 7.931E+00	 7.704E+00	 1.195E+03	 1.552E+01
    0.5000	 1.001E+01	-0.000E+00	 0.000E+00	 2.398E+00	-5.766E-01	 0.000E+00	 5.000E+00	 2.377E+01	 7.939E+00	 7.773E+02	 1.270E-02	-8.843E-03	 0.000E+00	 7.961E+01	 1.216E+03	 1.311E+02	-7.395E+01	 1.099E+02	 1.547E+03	 4.761E+03	 4.608E+03	 4.034E+03	 4.491E+03	-2.114E+01	 9.584E+02	-2.019E+03	 5.614E+02	 6.595E+01	 3.824E+00	-3.534E+03	 9.171E+02	-1.073E+03	-4.720E+02	 4.199E+01	 4.040E+00	-6.942E+03	 6.699E+02	 2.670E+03	-4.720E+02	 1.137E+00	 7.148E-01	 1.847E+05	-2.435E+03	 4.391E+03	 1.196E+06	 4.220E+05	-6.690E+05	 8.433E+00	 2.173E-01	 3.404E-01	 1.246E+04	 7.938E+00	 6.207E+00	 1.188E+03	 1.545E+01
    0.6000	 9.255E+00	-0.000E+00	 0.000E+00	 2.803E+00	-6.786E-01	 0.000E+00	 5.000E+00	 2.854E+01	 7.928E+00	 7.660E+02	 2.861E-02	-1.115E-02	 0.000E+00	 7.400E+01	 1.411E+03	 1.372E+02	-9.710E+01	 1.135E+02	 1.961E+03	 5.132E+03	 4.941E+03	 4.634E+03	 4.690E+03	-1.589E+01	 9.235E+02	-1.896E+03	 1.067E+03	 1.031E+02	 1.676E+01	-3.502E+03	 8.854E+02	-9.793E+02	-1.627E+02	 5.460E+01	-3.203E+01	-6.910E+03	 1.904E+03	 4.881E+03	-1.627E+02	 6.846E-01	 6.646E-01	 2.080E+05	-2.485E+03	 4.654E+03	 1.416E+06	 3.968E+05	-7.852E+05	 8.268E+00	 2.727E-01	 3.989E-01	 1.246E+04	 7.931E+00	 6.325E+00	 1.137E+03	 1.501E+01
    0.7000	 9.456E+00	-0.000E+00	 0.000E+00	 2.962E+00	-7.968E-01	 0.000E+00	 5.000E+00	 3.328E+01	 7.881E+00	 7.596E+02	 5.093E-02	-1.290E-02	 0.000E+00	 2.278E+02	 1.493E+03	 1.387E+02	-1.077E+02	 1.190E+02	 2.422E+03	 5.209E+03	 4.978E+03	 4.995E+03	 4.569E+03	-2.486E+01	 1.287E+03	-1.696E+03	 1.645E+03	 1.483E+02	 6.663E+00	-3.451E+03	 1.308E+03	-8.572E+02	 3.160E+02	 8.167E+01	-2.974E+00	-6.859E+03	 1.199E+03	 8.221E+03	 3.162E+02	 1.091E-01	 5.567E-01	 2.359E+05	-2.782E+03	 4.538E+03	 1.731E+06	 4.171E+05	-7.287E+05	 9.026E+00	 2.552E-01	 3.795E-01	 1.246E+04	 7.895E+00	 5.768E+00	 1.108E+03	 1.476E+01
    0.8000	 9.830E+00	-0.000E+00	 0.000E+00	 2.910E+00	-8.624E-01	 0.000E+00	 5.000E+00	 3.802E+01	 7.948E+00	 7.628E+02	 7.880E-02	-1.474E-02	 0.000E+00	 3.455E+02	 1.472E+03	 1.406E+02	-1.200E+02	 1.257E+02	 2.825E+03	 5.179E+03	 4.913E+03	 4.938E+03	 4.286E+03	-3.007E+01	 1.975E+03	-1.306E+03	 2.003E+03	 1.752E+02	-2.662E+00	-3.408E+03	 2.048E+03	-6.428E+02	 7.480E+02	 1.633E+02	 3.950E+01	-6.815E+03	 6.099E+01	 1.369E+04	 7.484E+02	 7.994E-01	 4.674E-01	 2.649E+05	-2.984E+03	 3.476E+03	 2.108E+06	 4.354E+05	-4.687E+05	 9.747E+00	 2.486E-01	 3.655E-01	 1.246E+04	 7.958E+00	 5.383E+00	 1.122E+03	 1.488E+01
    0.9000	 8.912E+00	-0.000E+00	 0.000E+00	 2.744E+00	-8.397E-01	 0.000E+00	 5.000E+00	 4.281E+01	 7.989E+00	 7.766E+02	 1.110E-01	-1.769E-02	 0.000E+00	 3.343E+02	 1.386E+03	 1.382E+02	-1.306E+02	 1.341E+02	 2.948E+03	 4.980E+03	 4.704E+03	 4.470E+03	 3.971E+03	-2.227E+01	 2.287E+03	-8.991E+02	 1.989E+03	 2.192E+02	-2.123E+00	-3.388E+03	 2.370E+03	-2.527E+02	 8.668E+02	 2.233E+02	 3.766E+01	-6.796E+03	 3.543E+02	 1.906E+04	 8.675E+02	 6.434E-01	 2.490E-01	 2.787E+05	-2.919E+03	 1.800E+03	 2.379E+06	 4.007E+05	-1.322E+05	 8.972E+00	 3.614E-01	 4.537E-01	 1.246E+04	 7.995E+00	 5.875E+00	 1.184E+03	 1.543E+01
    1.0000	 1.030E+01	-0.000E+00	 0.000E+00	 2.555E+00	-7.752E-01	 0.000E+00	 5.000E+00	 4.761E+01	 8.035E+00	 7.863E+02	 1.455E-01	-2.244E-02	 0.000E+00	 3.000E+02	 1.285E+03	 1.373E+02	-1.266E+02	 1.482E+02	 2.742E+03	 4.721E+03	 4.464E+03	 3.900E+03	 3.827E+03	-2.363E+01	 1.734E+03	-6.331E+02	 1.729E+03	 2.820E+02	-1.783E+01	-3.399E+03	 1.844E+03	 1.791E+02	 7.997E+02	 2.590E+02	 1.346E+01	-6.807E+03	 1.685E+03	 2.400E+04	 8.005E+02	-6.053E-01	-8.743E-03	 2.941E+05	-3.524E+03	 1.031E+03	 2.603E+06	 4.483E+05	 9.723E+04	 1.026E+01	 2.659E-01	 3.661E-01	 1.246E+04	 8.039E+00	 5.167E+00	 1.229E+03	 1.581E+01
    1.1000	 8.564E+00	-0.000E+00	 0.000E+00	 2.400E+00	-6.916E-01	 0.000E+00	 5.000E+00	 5.244E+01	 8.057E+00	 7.852E+02	 1.800E-01	-2.867E-02	 0.000E+00	 1.789E+02	 1.200E+03	 1.307E+02	-1.333E+02	 1.632E+02	 2.584E+03	 4.455E+03	 4.213E+03	 3.391E+03	 3.844E+03	-8.167E+00	 1.270E+03	-6.306E+02	 1.382E+03	 3.270E+02	-1.974E+01	-3.431E+03	 1.347E+03	 3.691E+02	 3.490E+02	 3.386E+02	-3.609E+01	-6.839E+03	 3.864E+03	 3.020E+04	 3.499E+02	-3.604E-01	-2.272E-01	 2.875E+05	-3.661E+03	 1.606E+03	 2.578E+06	 4.260E+05	 4.324E+04	 8.377E+00	 4.852E-01	 5.369E-01	 1.246E+04	 8.065E+00	 6.348E+00	 1.224E+03	 1.577E+01
    1.2000	 1.050E+01	-0.000E+00	 0.000E+00	 2.294E+00	-6.754E-01	 0.000E+00	 5.000E+00	 5.727E+01	 8.022E+00	 7.784E+02	 2.127E-01	-3.525E-02	 0.000E+00	 1.767E+02	 1.147E+03	 1.342E+02	-1.398E+02	 1.802E+02	 2.651E+03	 4.410E+03	 4.162E+03	 3.183E+03	 4.052E+03	-1.759E+01	 1.082E+03	-7.020E+02	 1.137E+03	 3.640E+02	-3.032E+01	-3.465E+03	 1.137E+03	 4.555E+02	-1.406E+02	 4.315E+02	-5.399E+01	-6.874E+03	 5.158E+03	 3.649E+04	-1.395E+02	 1.882E-01	-3.157E-01	 2.876E+05	-4.670E+03	 4.388E+03	 2.543E+06	 5.584E+05	-2.947E+05	 1.000E+01	 2.802E-01	 3.766E-01	 1.246E+04	 8.036E+00	 5.298E+00	 1.192E+03	 1.549E+01
    1.3000	 8.525E+00	-0.000E+00	 0.000E+00	 2.255E+00	-7.414E-01	 0.000E+00	 5.000E+00	 6.208E+01	 8.034E+00	 7.731E+02	 2.419E-01	-4.065E-02	 0.000E+00	 2.897E+02	 1.138E+03	 1.361E+02	-1.506E+02	 1.992E+02	 3.047E+03	 4.431E+03	 4.149E+03	 3.150E+03	 4.153E+03	-1.438E+01	 1.431E+03	-7.048E+02	 1.111E+03	 4.242E+02	-3.175E+01	-3.481E+03	 1.458E+03	 5.730E+02	-4.411E+02	 4.632E+02	-5.392E+01	-6.891E+03	 5.688E+03	 4.075E+04	-4.396E+02	-5.516E-01	-5.046E-01	 2.716E+05	-4.251E+03	 6.660E+03	 2.345E+06	 5.466E+05	-7.303E+05	 7.923E+00	 5.205E-01	 5.669E-01	 1.246E+04	 8.046E+00	 6.697E+00	 1.168E+03	 1.529E+01
    1.4000	 1.037E+01	-0.000E+00	 0.000E+00	 2.292E+00	-8.392E-01	 0.000E+00	 5.000E+00	 6.691E+01	 8.054E+00	 7.774E+02	 2.664E-01	-4.371E-02	 0.000E+00	 4.201E+02	 1.164E+03	 1.444E+02	-1.673E+02	 2.139E+02	 3.596E+03	 4.593E+03	 4.262E+03	 3.220E+03	 4.253E+03	-3.204E+01	 1.962E+03	-5.355E+02	 1.151E+03	 4.687E+02	-2.586E+01	-3.478E+03	 1.969E+03	 7.382E+02	-4.978E+02	 4.986E+02	-4.906E+01	-6.888E+03	 5.764E+03	 4.450E+04	-4.958E+02	-1.119E+00	-5.977E-01	 2.704E+05	-4.002E+03	 8.584E+03	 2.280E+06	 5.435E+05	-1.026E+06	 9.647E+00	 2.809E-01	 3.807E-01	 1.246E+04	 8.061E+00	 5.510E+00	 1.188E+03	 1.546E+01
    1.5000	 8.810E+00	-0.000E+00	 0.000E+00	 2.386E+00	-9.249E-01	 0.000E+00	 5.000E+00	 7.175E+01	 8.095E+00	 7.867E+02	 2.851E-01	-4.416E-02	 0.000E+00	 5.225E+02	 1.222E+03	 1.471E+02	-1.776E+02	 2.265E+02	 3.977E+03	 4.744E+03	 4.379E+03	 3.367E+03	 4.303E+03	-3.130E+01	 2.001E+03	-2.518E+02	 1.316E+03	 4.875E+02	-3.556E+01	-3.461E+03	 2.054E+03	 7.367E+02	-1.915E+02	 5.589E+02	-3.189E+01	-6.871E+03	 5.314E+03	 4.833E+04	-1.892E+02	-3.483E-01	-6.425E-01	 2.639E+05	-2.810E+03	 8.196E+03	 2.177E+06	 3.886E+05	-1.088E+06	 8.139E+00	 4.486E-01	 5.221E-01	 1.246E+04	 8.094E+00	 6.558E+00	 1.231E+03	 1.583E+01
    1.6000	 9.952E+00	-0.000E+00	 0.000E+00	 2.503E+00	-9.518E-01	 0.000E+00	 5.000E+00	 7.662E+01	 8.136E+00	 7.929E+02	 2.977E-01	-4.250E-02	 0.000E+00	 5.131E+02	 1.277E+03	 1.540E+02	-1.845E+02	 2.367E+02	 4.089E+03	 4.954E+03	 4.579E+03	 3.746E+03	 4.431E+03	-3.903E+01	 1.736E+03	 2.560E+01	 1.582E+03	 5.131E+02	-3.661E+01	-3.445E+03	 1.831E+03	 6.425E+02	 2.260E+02	 5.826E+02	-4.033E+01	-6.856E+03	 5.389E+03	 5.041E+04	 2.283E+02	-4.975E-01	-6.477E-01	 2.664E+05	-2.444E+03	 7.464E+03	 2.177E+06	 3.493E+05	-1.003E+06	 9.338E+00	 2.982E-01	 4.003E-01	 1.246E+04	 8.127E+00	 5.740E+00	 1.260E+03	 1.608E+01
    1.7000	 9.324E+00	-0.000E+00	 0.000E+00	 2.603E+00	-9.367E-01	 0.000E+00	 5.000E+00	 8.151E+01	 8.131E+00	 7.925E+02	 3.039E-01	-3.991E-02	 0.000E+00	 4.535E+02	 1.323E+03	 1.583E+02	-1.825E+02	 2.468E+02	 3.943E+03	 5.132E+03	 4.769E+03	 4.163E+03	 4.563E+03	-3.306E+01	 1.344E+03	 2.756E+02	 1.859E+03	 5.403E+02	-3.979E+01	-3.441E+03	 1.483E+03	 4.746E+02	 6.034E+02	 5.746E+02	-4.804E+01	-6.851E+03	 5.376E+03	 5.090E+04	 6.054E+02	-1.085E+00	-6.688E-01	 2.693E+05	-2.062E+03	 5.813E+03	 2.188E+06	 2.927E+05	-7.756E+05	 8.857E+00	 3.512E-01	 4.499E-01	 1.246E+04	 8.125E+00	 6.050E+00	 1.258E+03	 1.606E+01
    1.8000	 9.385E+00	-0.000E+00	 0.000E+00	 2.668E+00	-9.057E-01	 0.000E+00	 5.000E+00	 8.638E+01	 8.130E+00	 7.871E+02	 3.038E-01	-3.769E-02	 0.000E+00	 3.879E+02	 1.350E+03	 1.613E+02	-1.772E+02	 2.594E+02	 3.716E+03	 5.260E+03	 4.916E+03	 4.330E+03	 4.723E+03	-3.043E+01	 1.257E+03	 5.401E+02	 1.897E+03	 5.332E+02	-4.484E+01	-3.448E+03	 1.428E+03	 3.564E+02	 8.485E+02	 5.934E+02	-3.586E+01	-6.859E+03	 4.804E+03	 5.139E+04	 8.503E+02	-4.794E-01	-6.082E-01	 2.742E+05	-2.016E+03	 4.335E+03	 2.247E+06	 2.841E+05	-5.231E+05	 9.073E+00	 3.357E-01	 4.364E-01	 1.246E+04	 8.129E+00	 5.909E+00	 1.233E+03	 1.585E+01
    1.9000	 9.896E+00	-0.000E+00	 0.000E+00	 2.692E+00	-8.754E-01	 0.000E+00	 5.000E+00	 9.126E+01	 8.132E+00	 7.847E+02	 2.977E-01	-3.665E-02	 0.000E+00	 3.362E+02	 1.357E+03	 1.619E+02	-1.728E+02	 2.746E+02	 3.530E+03	 5.279E+03	 4.951E+03	 4.191E+03	 4.879E+03	-2.891E+01	 1.580E+03	 7.443E+02	 1.640E+03	 5.130E+02	-4.034E+01	-3.460E+03	 1.740E+03	 4.673E+02	 8.507E+02	 5.930E+02	-2.161E+01	-6.871E+03	 4.228E+03	 5.064E+04	 8.526E+02	-4.869E-02	-5.470E-01	 2.852E+05	-2.051E+03	 3.613E+03	 2.358E+06	 2.920E+05	-3.559E+05	 9.735E+00	 2.854E-01	 3.945E-01	 1.246E+04	 8.134E+00	 5.510E+00	 1.222E+03	 1.575E+01
    2.0000	 8.856E+00	-0.000E+00	 0.000E+00	 2.678E+00	-8.565E-01	 0.000E+00	 5.000E+00	 9.615E+01	 8.159E+00	 7.887E+02	 2.862E-01	-3.684E-02	 0.000E+00	 3.271E+02	 1.349E+03	 1.574E+02	-1.650E+02	 2.929E+02	 3.373E+03	 5.177E+03	 4.863E+03	 3.939E+03	 5.019E+03	-2.298E+01	 1.898E+03	 7.939E+02	 1.252E+03	 5.022E+02	-3.340E+01	-3.463E+03	 2.023E+03	 7.878E+02	 6.339E+02	 5.361E+02	-1.444E+01	-6.874E+03	 4.001E+03	 4.769E+04	 6.360E+02	-7.482E-01	-5.539E-01	 2.879E+05	-2.036E+03	 3.683E+03	 2.425E+06	 2.625E+05	-3.436E+05	 8.855E+00	 3.911E-01	 4.812E-01	 1.246E+04	 8.161E+00	 6.078E+00	 1.241E+03	 1.591E+01
    2.1000	 1.034E+01	-0.000E+00	 0.000E+00	 2.630E+00	-8.320E-01	 0.000E+00	 5.000E+00	 1.011E+02	 8.208E+00	 7.965E+02	 2.695E-01	-3.742E-02	 0.000E+00	 3.069E+02	 1.322E+03	 1.557E+02	-1.616E+02	 3.124E+02	 3.272E+03	 5.079E+03	 4.775E+03	 3.844E+03	 5.269E+03	-2.766E+01	 2.006E+03	 6.549E+02	 8.976E+02	 4.720E+02	-2.418E+01	-3.456E+03	 2.077E+03	 1.086E+03	 2.388E+02	 4.923E+02	-2.336E+01	-6.865E+03	 4.310E+03	 4.448E+04	 2.408E+02	-8.548E-01	-4.351E-01	 3.017E+05	-2.016E+03	 5.559E+03	 2.582E+06	 2.745E+05	-5.839E+05	 1.043E+01	 2.564E-01	 3.636E-01	 1.246E+04	 8.206E+00	 5.189E+00	 1.277E+03	 1.622E+01
    2.2000	 8.541E+00	-0.000E+00	 0.000E+00	 2.559E+00	-8.109E-01	 0.000E+00	 5.000E+00	 1.060E+02	 8.239E+00	 8.026E+02	 2.486E-01	-3.709E-02	 0.000E+00	 2.891E+02	 1.287E+03	 1.490E+02	-1.615E+02	 3.320E+02	 3.238E+03	 4.922E+03	 4.621E+03	 3.880E+03	 5.402E+03	-1.779E+01	 1.789E+03	 4.682E+02	 7.713E+02	 4.260E+02	-2.039E+01	-3.438E+03	 1.820E+03	 1.154E+03	-1.364E+02	 4.668E+02	-3.636E+01	-6.847E+03	 4.698E+03	 4.135E+04	-1.347E+02	 9.271E-03	-3.026E-01	 2.997E+05	-1.440E+03	 7.400E+03	 2.613E+06	 1.781E+05	-8.828E+05	 8.718E+00	 4.457E-01	 5.169E-01	 1.246E+04	 8.233E+00	 6.228E+00	 1.307E+03	 1.648E+01
    2.3000	 1.050E+01	-0.000E+00	 0.000E+00	 2.481E+00	-8.116E-01	 0.000E+00	 5.000E+00	 1.109E+02	 8.260E+00	 8.032E+02	 2.249E-01	-3.475E-02	 0.000E+00	 3.193E+02	 1.249E+03	 1.487E+02	-1.605E+02	 3.489E+02	 3.288E+03	 4.833E+03	 4.528E+03	 4.072E+03	 5.402E+03	-2.810E+01	 1.508E+03	 4.067E+02	 8.777E+02	 3.932E+02	-1.645E+01	-3.424E+03	 1.516E+03	 1.056E+03	-3.209E+02	 4.121E+02	-4.662E+01	-6.833E+03	 4.785E+03	 3.706E+04	-3.195E+02	-2.572E-01	-1.667E-01	 3.131E+05	-5.741E+02	 1.012E+04	 2.761E+06	 1.207E+05	-1.275E+06	 1.068E+01	 2.565E-01	 3.596E-01	 1.246E+04	 8.251E+00	 5.094E+00	 1.310E+03	 1.650E+01
    2.4000	 8.544E+00	-0.000E+00	 0.000E+00	 2.416E+00	-8.309E-01	 0.000E+00	 5.000E+00	 1.159E+02	 8.269E+00	 8.010E+02	 1.993E-01	-3.012E-02	 0.000E+00	 3.688E+02	 1.223E+03	 1.419E+02	-1.623E+02	 3.623E+02	 3.434E+03	 4.672E+03	 4.355E+03	 4.195E+03	 5.154E+03	-2.128E+01	 1.490E+03	 5.207E+02	 1.138E+03	 3.642E+02	-9.831E+00	-3.423E+03	 1.486E+03	 7.263E+02	-3.275E+02	 3.497E+02	-4.041E+01	-6.831E+03	 4.088E+03	 3.244E+04	-3.264E+02	-5.634E-01	-1.347E-01	 3.085E+05	 5.632E+02	 1.063E+04	 2.730E+06	-4.362E+04	-1.397E+06	 8.748E+00	 4.623E-01	 5.283E-01	 1.246E+04	 8.260E+00	 6.227E+00	 1.299E+03	 1.641E+01
    2.5000	 1.033E+01	-0.000E+00	 0.000E+00	 2.367E+00	-8.505E-01	 0.000E+00	 5.000E+00	 1.209E+02	 8.285E+00	 8.008E+02	 1.728E-01	-2.396E-02	 0.000E+00	 4.277E+02	 1.200E+03	 1.410E+02	-1.605E+02	 3.743E+02	 3.526E+03	 4.591E+03	 4.266E+03	 4.363E+03	 4.988E+03	-3.265E+01	 1.696E+03	 7.394E+02	 1.374E+03	 3.146E+02	-8.967E+00	-3.443E+03	 1.700E+03	 2.355E+02	-2.196E+02	 3.293E+02	-6.637E+00	-6.852E+03	 2.410E+03	 2.884E+04	-2.186E+02	 1.134E-01	 1.892E-02	 3.165E+05	 1.800E+03	 1.054E+04	 2.795E+06	-1.608E+05	-1.377E+06	 1.051E+01	 2.734E-01	 3.754E-01	 1.246E+04	 8.278E+00	 5.192E+00	 1.299E+03	 1.640E+01
    2.6000	 8.863E+00	-0.000E+00	 0.000E+00	 2.332E+00	-8.365E-01	 0.000E+00	 5.000E+00	 1.258E+02	 8.321E+00	 8.051E+02	 1.462E-01	-1.763E-02	 0.000E+00	 4.227E+02	 1.185E+03	 1.374E+02	-1.549E+02	 3.855E+02	 3.432E+03	 4.521E+03	 4.204E+03	 4.499E+03	 4.829E+03	-2.503E+01	 1.946E+03	 1.009E+03	 1.558E+03	 2.738E+02	-4.508E+00	-3.476E+03	 1.950E+03	-2.581E+02	-1.043E+02	 2.925E+02	 2.354E+01	-6.884E+03	 8.073E+02	 2.482E+04	-1.035E+02	 5.466E-01	 1.105E-01	 3.107E+05	 2.745E+03	 8.243E+03	 2.723E+06	-3.124E+05	-1.042E+06	 9.041E+00	 4.203E-01	 4.982E-01	 1.246E+04	 8.311E+00	 6.062E+00	 1.319E+03	 1.658E+01
    2.7000	 9.888E+00	-0.000E+00	 0.000E+00	 2.307E+00	-7.753E-01	 0.000E+00	 5.000E+00	 1.309E+02	 8.357E+00	 8.117E+02	 1.207E-01	-1.252E-02	 0.000E+00	 3.454E+02	 1.167E+03	 1.383E+02	-1.414E+02	 3.961E+02	 3.064E+03	 4.538E+03	 4.254E+03	 4.617E+03	 4.800E+03	-2.624E+01	 1.968E+03	 1.260E+03	 1.578E+03	 2.471E+02	 3.322E+00	-3.506E+03	 1.966E+03	-5.419E+02	-1.993E+01	 2.269E+02	 3.203E+01	-6.914E+03	-1.951E+00	 2.008E+04	-1.932E+01	 3.866E-03	 2.069E-01	 3.126E+05	 3.651E+03	 6.137E+03	 2.732E+06	-4.270E+05	-6.885E+05	 1.003E+01	 3.100E-01	 4.070E-01	 1.246E+04	 8.347E+00	 5.487E+00	 1.352E+03	 1.685E+01
    2.8000	 9.394E+00	-0.000E+00	 0.000E+00	 2.286E+00	-6.822E-01	 0.000E+00	 5.000E+00	 1.359E+02	 8.385E+00	 8.159E+02	 9.716E-02	-9.367E-03	 0.000E+00	 2.173E+02	 1.148E+03	 1.363E+02	-1.237E+02	 4.092E+02	 2.522E+03	 4.505E+03	 4.268E+03	 4.546E+03	 4.829E+03	-1.694E+01	 1.758E+03	 1.449E+03	 1.356E+03	 2.072E+02	 8.180E+00	-3.515E+03	 1.757E+03	-6.226E+02	 8.434E+01	 1.847E+02	 2.813E+01	-6.923E+03	-1.874E+02	 1.622E+04	 8.475E+01	 2.751E-01	 3.159E-01	 3.116E+05	 4.250E+03	 4.228E+03	 2.706E+06	-5.341E+05	-3.676E+05	 9.518E+00	 3.608E-01	 4.508E-01	 1.246E+04	 8.378E+00	 5.804E+00	 1.373E+03	 1.703E+01
    2.9000	 9.315E+00	-0.000E+00	 0.000E+00	 2.259E+00	-5.909E-01	 0.000E+00	 5.000E+00	 1.409E+02	 8.399E+00	 8.159E+02	 7.672E-02	-8.040E-03	 0.000E+00	 9.530E+01	 1.125E+03	 1.333E+02	-1.060E+02	 4.239E+02	 1.998E+03	 4.432E+03	 4.241E+03	 4.338E+03	 4.904E+03	-1.142E+01	 1.572E+03	 1.535E+03	 9.428E+02	 1.616E+02	 1.299E+01	-3.495E+03	 1.572E+03	-4.737E+02	 2.010E+02	 1.571E+02	 1.973E+01	-6.903E+03	-4.709E+01	 1.309E+04	 2.013E+02	 8.964E-01	 4.371E-01	 3.099E+05	 4.640E+03	 3.649E+03	 2.693E+06	-6.087E+05	-2.527E+05	 9.415E+00	 3.718E-01	 4.583E-01	 1.246E+04	 8.395E+00	 5.880E+00	 1.373E+03	 1.703E+01
    3.0000	 9.960E+00	-0.000E+00	 0.000E+00	 2.218E+00	-5.345E-01	 0.000E+00	 5.000E+00	 1.460E+02	 8.406E+00	 8.142E+02	 6.040E-02	-7.836E-03	 0.000E+00	 4.084E+01	 1.101E+03	 1.313E+02	-8.965E+01	 4.367E+02	 1.636E+03	 4.366E+03	 4.207E+03	 4.162E+03	 4.977E+03	-1.119E+01	 1.578E+03	 1.508E+03	 5.309E+02	 1.379E+02	 1.859E+01	-3.452E+03	 1.571E+03	-1.275E+02	 2.553E+02	 1.017E+02	 1.499E+01	-6.860E+03	 7.139E+01	 9.633E+03	 2.556E+02	 4.593E-01	 5.123E-01	 3.139E+05	 5.030E+03	 4.516E+03	 2.715E+06	-6.618E+05	-3.831E+05	 1.002E+01	 3.117E-01	 4.100E-01	 1.246E+04	 8.406E+00	 5.534E+00	 1.365E+03	 1.696E+01
    3.1000	 8.804E+00	-0.000E+00	 0.000E+00	 2.168E+00	-5.153E-01	 0.000E+00	 5.000E+00	 1.510E+02	 8.425E+00	 8.147E+02	 4.897E-02	-7.999E-03	 0.000E+00	 4.356E+01	 1.078E+03	 1.262E+02	-7.872E+01	 4.481E+02	 1.486E+03	 4.252E+03	 4.106E+03	 4.094E+03	 4.969E+03	-6.903E+00	 1.781E+03	 1.392E+03	 2.853E+02	 1.224E+02	 2.272E+01	-3.407E+03	 1.759E+03	 1.857E+02	 1.935E+02	 5.741E+01	 1.958E+01	-6.814E+03	-7.625E+01	 7.089E+03	 1.937E+02	 1.700E-01	 5.436E-01	 3.074E+05	 5.167E+03	 5.626E+03	 2.662E+06	-7.007E+05	-5.831E+05	 8.825E+00	 4.479E-01	 5.172E-01	 1.246E+04	 8.428E+00	 6.297E+00	 1.367E+03	 1.698E+01
    3.2000	 1.037E+01	-0.000E+00	 0.000E+00	 2.116E+00	-5.145E-01	 0.000E+00	 5.000E+00	 1.561E+02	 8.454E+00	 8.189E+02	 4.306E-02	-8.139E-03	 0.000E+00	 7.710E+01	 1.052E+03	 1.246E+02	-7.056E+01	 4.580E+02	 1.440E+03	 4.155E+03	 4.014E+03	 4.206E+03	 4.933E+03	-1.524E+01	 1.961E+03	 1.283E+03	 2.380E+02	 1.019E+02	 2.135E+01	-3.383E+03	 1.928E+03	 2.899E+02	 5.765E+01	 6.166E+01	 3.023E+01	-6.791E+03	-3.918E+02	 6.507E+03	 5.786E+01	 6.448E-01	 6.326E-01	 3.123E+05	 5.784E+03	 7.097E+03	 2.689E+06	-7.417E+05	-8.758E+05	 1.030E+01	 2.857E-01	 3.859E-01	 1.246E+04	 8.456E+00	 5.415E+00	 1.389E+03	 1.715E+01
    3.3000	 8.523E+00	-0.000E+00	 0.000E+00	 2.070E+00	-5.082E-01	 0.000E+00	 5.000E+00	 1.611E+02	 8.487E+00	 8.243E+02	 4.309E-02	-8.328E-03	 0.000E+00	 9.280E+01	 1.032E+03	 1.196E+02	-6.264E+01	 4.650E+02	 1.372E+03	 4.038E+03	 3.903E+03	 4.306E+03	 4.711E+03	-8.249E+00	 1.940E+03	 1.347E+03	 3.445E+02	 1.037E+02	 1.820E+01	-3.392E+03	 1.903E+03	 1.413E+02	-7.510E+01	 6.515E+01	 3.131E+01	-6.799E+03	-3.975E+02	 6.674E+03	-7.489E+01	 7.423E-01	 5.830E-01	 3.023E+05	 5.927E+03	 6.683E+03	 2.584E+06	-7.650E+05	-8.972E+05	 8.394E+00	 5.088E-01	 5.622E-01	 1.246E+04	 8.486E+00	 6.667E+00	 1.416E+03	 1.738E+01
    3.4000	 1.050E+01	-0.000E+00	 0.000E+00	 2.034E+00	-4.811E-01	 0.000E+00	 5.000E+00	 1.662E+02	 8.509E+00	 8.274E+02	 4.883E-02	-8.921E-03	 0.000E+00	 7.589E+01	 1.012E+03	 1.207E+02	-5.142E+01	 4.687E+02	 1.181E+03	 4.020E+03	 3.902E+03	 4.459E+03	 4.524E+03	-1.638E+01	 1.772E+03	 1.542E+03	 4.663E+02	 1.237E+02	 1.584E+01	-3.432E+03	 1.731E+03	-1.460E+02	-1.957E+02	 7.249E+01	 2.081E+01	-6.840E+03	-7.053E+00	 7.572E+03	-1.954E+02	 1.636E-01	 5.245E-01	 3.057E+05	 6.858E+03	 5.654E+03	 2.582E+06	-8.220E+05	-8.205E+05	 1.024E+01	 2.812E-01	 3.824E-01	 1.246E+04	 8.509E+00	 5.482E+00	 1.432E+03	 1.751E+01
    3.5000	 8.567E+00	-0.000E+00	 0.000E+00	 2.009E+00	-4.344E-01	 0.000E+00	 5.000E+00	 1.714E+02	 8.518E+00	 8.272E+02	 5.960E-02	-1.026E-02	 0.000E+00	 2.398E+01	 9.979E+02	 1.178E+02	-3.717E+01	 4.722E+02	 8.708E+02	 3.961E+03	 3.870E+03	 4.525E+03	 4.351E+03	-6.177E+00	 1.624E+03	 1.776E+03	 4.904E+02	 1.407E+02	 1.066E+01	-3.484E+03	 1.586E+03	-5.158E+02	-2.904E+02	 1.131E+02	 1.458E+01	-6.892E+03	 3.503E+02	 1.003E+04	-2.901E+02	 5.293E-01	 4.275E-01	 2.948E+05	 7.252E+03	 2.906E+03	 2.460E+06	-8.868E+05	-4.329E+05	 8.253E+00	 5.118E-01	 5.671E-01	 1.246E+04	 8.521E+00	 6.809E+00	 1.431E+03	 1.750E+01
    3.6000	 1.029E+01	-0.000E+00	 0.000E+00	 1.991E+00	-3.745E-01	 0.000E+00	 5.000E+00	 1.765E+02	 8.524E+00	 8.258E+02	 7.463E-02	-1.241E-02	 0.000E+00	-4.023E+01	 9.825E+02	 1.181E+02	-1.831E+01	 4.744E+02	 4.527E+02	 3.940E+03	 3.885E+03	 4.575E+03	 4.351E+03	-1.155E+01	 1.643E+03	 1.910E+03	 3.345E+02	 1.603E+02	 6.808E+00	-3.524E+03	 1.609E+03	-7.077E+02	-3.154E+02	 1.635E+02	 1.293E+01	-6.932E+03	 6.355E+02	 1.317E+04	-3.151E+02	 7.708E-01	 3.822E-01	 2.932E+05	 8.634E+03	 4.079E+02	 2.424E+06	-1.046E+06	-6.381E+04	 9.819E+00	 2.997E-01	 3.986E-01	 1.246E+04	 8.530E+00	 5.729E+00	 1.424E+03	 1.744E+01
    3.7000	 8.919E+00	-0.000E+00	 0.000E+00	 1.967E+00	-3.047E-01	 0.000E+00	 5.000E+00	 1.816E+02	 8.534E+00	 8.262E+02	 9.307E-02	-1.514E-02	 0.000E+00	-1.202E+02	 9.668E+02	 1.149E+02	 1.829E+00	 4.740E+02	-1.553E+01	 3.872E+03	 3.859E+03	 4.452E+03	 4.367E+03	-3.222E+00	 1.788E+03	 1.947E+03	 1.276E+00	 1.991E+02	 6.850E+00	-3.529E+03	 1.762E+03	-6.514E+02	-2.156E+02	 1.830E+02	 9.735E+00	-6.937E+03	 9.954E+02	 1.588E+04	-2.151E+02	 2.345E-01	 2.392E-01	 2.843E+05	 8.839E+03	-1.730E+03	 2.321E+06	-1.130E+06	 2.983E+05	 8.459E+00	 4.494E-01	 5.206E-01	 1.246E+04	 8.541E+00	 6.658E+00	 1.426E+03	 1.746E+01
    3.8000	 9.822E+00	-0.000E+00	 0.000E+00	 1.927E+00	-2.279E-01	 0.000E+00	 5.000E+00	 1.867E+02	 8.554E+00	 8.290E+02	 1.139E-01	-1.810E-02	 0.000E+00	-2.023E+02	 9.395E+02	 1.119E+02	 2.299E+01	 4.735E+02	-5.126E+02	 3.768E+03	 3.799E+03	 4.292E+03	 4.487E+03	-4.981E+00	 1.901E+03	 1.790E+03	-4.622E+02	 2.313E+02	 4.797E+00	-3.499E+03	 1.902E+03	-3.739E+02	 5.072E+01	 2.166E+02	 7.686E+00	-6.907E+03	 1.350E+03	 1.918E+04	 5.133E+01	-4.579E-02	 1.467E-01	 2.837E+05	 8.466E+03	-2.262E+03	 2.299E+06	-1.057E+06	 4.057E+05	 9.368E+00	 3.286E-01	 4.237E-01	 1.246E+04	 8.561E+00	 6.026E+00	 1.441E+03	 1.758E+01
    3.9000	 9.465E+00	-0.000E+00	 0.000E+00	 1.876E+00	-1.529E-01	 0.000E+00	 5.000E+00	 1.918E+02	 8.574E+00	 8.326E+02	 1.362E-01	-2.104E-02	 0.000E+00	-2.842E+02	 9.082E+02	 1.078E+02	 4.169E+01	 4.734E+02	-9.671E+02	 3.633E+03	 3.703E+03	 4.147E+03	 4.637E+03	 2.268E-01	 1.882E+03	 1.501E+03	-9.420E+02	 2.549E+02	-1.344E+00	-3.449E+03	 1.929E+03	-2.128E+01	 4.419E+02	 2.692E+02	 5.093E+00	-6.857E+03	 1.743E+03	 2.319E+04	 4.426E+02	 3.299E-01	 7.831E-02	 2.843E+05	 7.007E+03	-1.594E+03	 2.281E+06	-8.694E+05	 3.189E+05	 9.041E+00	 3.634E-01	 4.558E-01	 1.246E+04	 8.580E+00	 6.258E+00	 1.459E+03	 1.773E+01
    4.0000	 9.246E+00	-0.000E+00	 0.000E+00	 1.829E+00	-9.626E-02	 0.000E+00	 5.000E+00	 1.970E+02	 8.588E+00	 8.344E+02	 1.592E-01	-2.401E-02	 0.000E+00	-3.434E+02	 8.804E+02	 1.060E+02	 5.664E+01	 4.717E+02	-1.307E+03	 3.570E+03	 3.671E+03	 4.117E+03	 4.782E+03	 2.915E+00	 1.760E+03	 1.196E+03	-1.301E+03	 2.924E+02	-8.450E+00	-3.404E+03	 1.853E+03	 3.423E+02	 8.057E+02	 3.004E+02	-3.126E+00	-6.812E+03	 2.312E+03	 2.667E+04	 8.067E+02	 3.472E-02	-1.587E-02	 2.825E+05	 5.774E+03	-1.425E+02	 2.261E+06	-7.411E+05	 8.218E+04	 8.828E+00	 3.875E-01	 4.750E-01	 1.246E+04	 8.592E+00	 6.419E+00	 1.469E+03	 1.781E+01
    4.1000	 1.002E+01	-0.000E+00	 0.000E+00	 1.799E+00	-7.113E-02	 0.000E+00	 5.000E+00	 2.022E+02	 8.592E+00	 8.340E+02	 1.820E-01	-2.728E-02	 0.000E+00	-3.595E+02	 8.651E+02	 1.078E+02	 6.728E+01	 4.682E+02	-1.486E+03	 3.591E+03	 3.706E+03	 4.243E+03	 4.855E+03	 7.335E-01	 1.666E+03	 9.675E+02	-1.438E+03	 3.349E+02	-1.568E+01	-3.384E+03	 1.787E+03	 5.961E+02	 9.513E+02	 3.278E+02	-1.226E+01	-6.793E+03	 2.939E+03	 3.003E+04	 9.525E+02	-5.189E-01	-1.056E-01	 2.855E+05	 5.282E+03	 1.317E+03	 2.267E+06	-7.028E+05	-2.040E+05	 9.584E+00	 3.039E-01	 4.073E-01	 1.246E+04	 8.599E+00	 5.917E+00	 1.467E+03	 1.779E+01
    4.2000	 8.755E+00	-0.000E+00	 0.000E+00	 1.798E+00	-7.626E-02	 0.000E+00	 5.000E+00	 2.073E+02	 8.595E+00	 8.330E+02	 2.039E-01	-3.115E-02	 0.000E+00	-3.378E+02	 8.665E+02	 1.077E+02	 7.489E+01	 4.637E+02	-1.529E+03	 3.599E+03	 3.718E+03	 4.435E+03	 4.764E+03	 5.589E+00	 1.689E+03	 8.683E+02	-1.367E+03	 3.642E+02	-2.392E+01	-3.396E+03	 1.815E+03	 6.387E+02	 8.188E+02	 3.828E+02	-1.574E+01	-6.805E+03	 3.462E+03	 3.409E+04	 8.201E+02	-1.556E-01	-1.977E-01	 2.808E+05	 4.795E+03	 1.890E+03	 2.223E+06	-6.748E+05	-3.315E+05	 8.339E+00	 4.528E-01	 5.292E-01	 1.246E+04	 8.605E+00	 6.805E+00	 1.461E+03	 1.775E+01
    4.3000	 1.041E+01	-0.000E+00	 0.000E+00	 1.827E+00	-9.170E-02	 0.000E+00	 5.000E+00	 2.125E+02	 8.604E+00	 8.333E+02	 2.240E-01	-3.559E-02	 0.000E+00	-3.029E+02	 8.823E+02	 1.105E+02	 8.309E+01	 4.558E+02	-1.561E+03	 3.657E+03	 3.779E+03	 4.682E+03	 4.629E+03	-2.531E+00	 1.796E+03	 8.820E+02	-1.198E+03	 3.925E+02	-2.961E+01	-3.432E+03	 1.902E+03	 5.894E+02	 4.719E+02	 4.351E+02	-2.063E+01	-6.841E+03	 4.078E+03	 3.783E+04	 4.734E+02	-7.811E-02	-2.632E-01	 2.860E+05	 5.140E+03	 1.445E+03	 2.249E+06	-7.252E+05	-3.251E+05	 9.989E+00	 2.667E-01	 3.756E-01	 1.246E+04	 8.613E+00	 5.686E+00	 1.463E+03	 1.776E+01
    4.4000	 8.511E+00	-0.000E+00	 0.000E+00	 1.874E+00	-8.915E-02	 0.000E+00	 5.000E+00	 2.176E+02	 8.620E+00	 8.356E+02	 2.413E-01	-4.009E-02	 0.000E+00	-3.088E+02	 9.074E+02	 1.106E+02	 9.274E+01	 4.445E+02	-1.692E+03	 3.719E+03	 3.853E+03	 4.830E+03	 4.459E+03	 6.964E+00	 1.890E+03	 9.930E+02	-1.075E+03	 4.307E+02	-3.057E+01	-3.472E+03	 1.959E+03	 4.979E+02	 5.513E+01	 4.562E+02	-3.331E+01	-6.881E+03	 4.921E+03	 4.045E+04	 5.688E+01	-5.201E-01	-4.059E-01	 2.811E+05	 4.948E+03	-4.158E+01	 2.210E+06	-7.033E+05	-6.932E+04	 8.163E+00	 4.811E-01	 5.529E-01	 1.246E+04	 8.628E+00	 6.971E+00	 1.475E+03	 1.786E+01
    4.5000	 1.049E+01	-0.000E+00	 0.000E+00	 1.928E+00	-5.303E-02	 0.000E+00	 5.000E+00	 2.228E+02	 8.639E+00	 8.385E+02	 2.550E-01	-4.376E-02	 0.000E+00	-3.638E+02	 9.280E+02	 1.158E+02	 1.071E+02	 4.323E+02	-2.014E+03	 3.855E+03	 4.016E+03	 4.999E+03	 4.437E+03	 4.669E-01	 1.888E+03	 1.067E+03	-1.059E+03	 4.534E+02	-3.155E+01	-3.499E+03	 1.930E+03	 4.068E+02	-2.647E+02	 4.887E+02	-4.618E+01	-6.908E+03	 5.695E+03	 4.289E+04	-2.628E+02	-6.232E-01	-4.328E-01	 2.883E+05	 5.386E+03	-2.084E+03	 2.270E+06	-7.574E+05	 2.544E+05	 1.017E+01	 2.557E-01	 3.650E-01	 1.246E+04	 8.644E+00	 5.603E+00	 1.490E+03	 1.798E+01