
Predictions were generated on 09-Dec-2023 at 00:21:27 using OpenFAST, compiled as a 64-bit application using double precision at commit v3.5.1-dirty
 linked with  NWTC Subroutine Library; ElastoDyn; InflowWind; AeroDyn; ServoDyn

Description from the FAST input file: FAST          Certification - Test #18: NREL 5.0 MW Baseline Wind Turbine (Onshore)

Time	Wind1VelX	Wind1VelY	Wind1VelZ	OoPDefl1	IPDefl1	TwstDefl1	BldPitch1	Azimuth	RotSpeed	GenSpeed	TTDspFA	TTDspSS	TTDspTwst	Spn2MLxb1	Spn2MLyb1	RootFxb1	RootFyb1	RootFzb1	RootMxb1	RootMyb1	RootMyc1	RootMyc2	RootMyc3	RootMzb1	RotTorq	LSSGagMya	LSSGagMza	YawBrFxp	YawBrFyp	YawBrFzp	YawBrMxp	YawBrMyp	YawBrMzp	TwrBsFxt	TwrBsFyt	TwrBsFzt	TwrBsMxt	TwrBsMyt	TwrBsMzt	NcIMURAys	NcIMUTAxs	RtFldFxh	RtFldFyh	RtFldFzh	RtFldMxh	RtFldMyh	RtFldMzh	RtVAvgxh	RtFldCp	RtFldCt	RtArea	RtSpeed	RtTSR	GenTq	GenPwr
(s)	(m/s)	(m/s)	(m/s)	(m)	(m)	(deg)	(deg)	(deg)	(rpm)	(rpm)	(m)	(m)	(deg)	(kN-m)	(kN-m)	(kN)	(kN)	(kN)	(kN-m)	(kN-m)	(kN-m)	(kN-m)	(kN-m)	(kN-m)	(kN-m)	(kN-m)	(kN-m)	(kN)	(kN)	(kN)	(kN-m)	(kN-m)	(kN-m)	(kN)	(kN)	(kN)	(kN-m)	(kN-m)	(kN-m)	(deg/s^2)	(m/s^2)	(N)	(N)	(N)	(N-m)	(N-m)	(N-m)	(m/s)	(-)	(-)	(m^2)	(rpm)	(-)	(kN-m)	(kW)
    0.0000	 5.978E+00	 5.115E-01	 2.130E+00	 0.000E+00	 0.000E+00	 0.000E+00	 5.000E+00	 0.000E+00	 8.000E+00	 7.760E+02	 0.000E+00	-0.000E+00	 0.000E+00	 2.595E+00	-7.585E+00	 9.479E+00	-2.405E-01	 1.019E+02	 1.288E+00	 8.235E+01	 8.192E+01	 5.888E+01	 1.502E+02	 1.101E-15	-5.107E-13	-1.935E+03	-6.764E+01	 1.560E+01	-1.272E-01	-3.323E+03	-1.857E+00	-4.092E+02	-3.092E-13	-1.418E+01	 3.535E-02	-6.730E+03	-6.884E-01	-3.279E+02	-3.092E-13	-9.618E-01	-1.731E-01	 1.168E+05	-1.122E+03	 2.361E+03	 5.868E+05	 3.182E+05	-4.006E+04	 5.738E+00	 3.413E-01	 4.652E-01	 1.245E+04	 8.000E+00	 9.189E+00	 1.540E+01	 1.181E+03
    0.0050	 5.979E+00	 5.014E-01	 1.961E+00	 2.758E-04	-1.178E-05	 0.000E+00	 5.000E+00	 2.400E-01	 8.000E+00	 7.746E+02	-1.434E-06	-4.422E-08	 0.000E+00	 5.797E-01	-7.878E+00	 1.186E+01	-4.144E-01	 1.020E+02	 8.293E+00	 1.074E+02	 1.063E+02	 7.729E+01	 1.830E+02	-1.894E+01	 1.277E+01	-1.925E+03	-7.011E+01	 1.491E+01	 1.004E+00	-3.322E+03	 2.382E+01	-3.963E+02	-4.491E-13	-1.270E+01	-7.210E-01	-6.730E+03	 1.360E+01	-3.043E+02	-3.554E-07	-9.650E-01	-1.471E-01	 1.158E+05	-1.133E+03	 2.263E+03	 5.776E+05	 3.233E+05	-3.954E+04	 5.720E+00	 3.391E-01	 4.641E-01	 1.245E+04	 8.001E+00	 9.218E+00	 1.535E+01	 1.175E+03
    0.0100	 1.346E+01	-0.000E+00	 0.000E+00	 1.097E-03	-5.122E-05	 0.000E+00	 5.000E+00	 4.800E-01	 8.001E+00	 7.733E+02	-5.727E-06	-2.259E-07	 0.000E+00	-1.363E+00	-7.709E+00	 1.206E+01	-1.086E+00	 1.020E+02	 1.557E+01	 1.118E+02	 1.100E+02	 8.171E+01	 1.865E+02	-1.912E+01	 3.179E+01	-1.928E+03	-6.352E+01	 1.489E+01	 1.748E+00	-3.323E+03	 4.047E+01	-4.007E+02	-1.175E+01	-1.240E+01	-1.231E+00	-6.730E+03	 2.266E+01	-2.964E+02	-1.175E+01	-9.552E-01	-1.454E-01	 1.251E+05	-2.152E+02	 4.347E+03	 5.983E+05	 2.720E+05	-2.697E+05	 1.327E+01	 2.814E-02	 9.320E-02	 1.245E+04	 8.001E+00	 3.974E+00	 1.529E+01	 1.169E+03
    0.0150	 1.345E+01	-0.000E+00	 0.000E+00	 2.482E-03	-1.181E-04	 0.000E+00	 5.000E+00	 7.200E-01	 8.001E+00	 7.720E+02	-1.192E-05	-6.225E-07	 0.000E+00	 8.680E-01	-8.321E+00	 2.143E+01	-1.340E+00	 1.031E+02	 1.801E+01	 1.939E+02	 1.916E+02	 1.247E+02	 3.167E+02	-8.776E+01	 5.733E+01	-1.911E+03	-1.376E+02	 8.126E+00	 2.781E+00	-3.320E+03	 6.054E+01	-3.483E+02	-2.333E+01	-1.099E+00	-1.951E+00	-6.728E+03	 3.386E+01	-1.570E+02	-2.333E+01	-1.652E+00	-2.731E-02	 1.191E+05	-1.582E+02	 4.333E+03	 5.669E+05	 2.698E+05	-2.596E+05	 1.323E+01	 2.691E-02	 8.924E-02	 1.245E+04	 8.002E+00	 3.986E+00	 1.524E+01	 1.163E+03
    0.0200	 1.328E+01	-0.000E+00	 0.000E+00	 4.488E-03	-2.263E-04	 0.000E+00	 5.000E+00	 9.601E-01	 8.001E+00	 7.707E+02	-1.935E-05	-1.322E-06	 0.000E+00	-8.170E+00	-7.897E+00	 1.140E+01	-2.914E+00	 1.021E+02	 3.639E+01	 1.123E+02	 1.087E+02	 7.251E+01	 1.876E+02	-3.881E+01	 8.836E+01	-1.926E+03	-6.441E+01	 1.376E+01	 3.960E+00	-3.323E+03	 9.007E+01	-4.033E+02	-4.458E+01	-1.070E+01	-2.662E+00	-6.730E+03	 4.783E+01	-2.501E+02	-4.458E+01	-9.180E-01	-1.504E-01	 1.244E+05	-2.687E+02	 4.265E+03	 6.070E+05	 3.059E+05	-2.370E+05	 1.303E+01	 3.019E-02	 9.621E-02	 1.245E+04	 8.002E+00	 4.049E+00	 1.519E+01	 1.157E+03
    0.0250	 1.344E+01	-0.000E+00	 0.000E+00	 7.185E-03	-4.098E-04	 0.000E+00	 5.000E+00	 1.200E+00	 8.001E+00	 7.694E+02	-2.869E-05	-2.423E-06	 0.000E+00	-1.051E+01	-7.496E+00	 1.506E+01	-3.727E+00	 1.024E+02	 4.667E+01	 1.508E+02	 1.462E+02	 9.653E+01	 2.414E+02	-3.549E+01	 1.249E+02	-1.925E+03	-8.349E+01	 1.155E+01	 5.397E+00	-3.323E+03	 1.216E+02	-3.956E+02	-6.481E+01	-6.268E+00	-3.561E+00	-6.731E+03	 6.273E+01	-1.809E+02	-6.481E+01	-1.088E+00	-1.064E-01	 1.360E+05	-4.676E+02	 4.276E+03	 6.852E+05	 3.606E+05	-2.109E+05	 1.315E+01	 3.313E-02	 1.032E-01	 1.245E+04	 8.002E+00	 4.011E+00	 1.514E+01	 1.152E+03
    0.0300	 1.335E+01	-0.000E+00	 0.000E+00	 1.067E-02	-6.950E-04	 0.000E+00	 5.000E+00	 1.440E+00	 8.000E+00	 7.682E+02	-3.973E-05	-4.031E-06	 0.000E+00	-1.436E+01	-5.810E+00	 1.578E+01	-4.832E+00	 1.024E+02	 5.919E+01	 1.627E+02	 1.569E+02	 1.021E+02	 2.550E+02	-4.364E+01	 1.665E+02	-1.925E+03	-8.754E+01	 1.044E+01	 6.989E+00	-3.324E+03	 1.580E+02	-3.982E+02	-8.933E+01	-4.081E+00	-4.501E+00	-6.731E+03	 7.844E+01	-1.320E+02	-8.933E+01	-1.087E+00	-9.685E-02	 1.484E+05	-7.121E+02	 4.214E+03	 7.730E+05	 4.151E+05	-1.830E+05	 1.301E+01	 3.855E-02	 1.149E-01	 1.245E+04	 8.001E+00	 4.052E+00	 1.509E+01	 1.146E+03
    0.0350	 1.330E+01	-0.000E+00	 0.000E+00	 1.503E-02	-1.112E-03	 0.000E+00	 5.000E+00	 1.680E+00	 7.999E+00	 7.670E+02	-5.239E-05	-6.254E-06	 0.000E+00	-1.915E+01	-3.533E+00	 1.542E+01	-6.093E+00	 1.023E+02	 7.363E+01	 1.666E+02	 1.596E+02	 1.037E+02	 2.591E+02	-4.043E+01	 2.126E+02	-1.931E+03	-8.584E+01	 1.014E+01	 8.739E+00	-3.325E+03	 1.987E+02	-4.114E+02	-1.156E+02	-2.978E+00	-5.491E+00	-6.732E+03	 9.445E+01	-9.231E+01	-1.156E+02	-9.948E-01	-9.983E-02	 1.615E+05	-9.802E+02	 4.162E+03	 8.685E+05	 4.692E+05	-1.558E+05	 1.292E+01	 4.428E-02	 1.270E-01	 1.245E+04	 8.000E+00	 4.082E+00	 1.505E+01	 1.141E+03
    0.0400	 1.321E+01	-0.000E+00	 0.000E+00	 2.032E-02	-1.690E-03	 0.000E+00	 5.000E+00	 1.920E+00	 7.997E+00	 7.659E+02	-6.666E-05	-9.209E-06	 0.000E+00	-2.373E+01	-1.010E+00	 1.589E+01	-7.392E+00	 1.023E+02	 8.870E+01	 1.791E+02	 1.706E+02	 1.111E+02	 2.729E+02	-3.925E+01	 2.628E+02	-1.935E+03	-8.777E+01	 9.218E+00	 1.061E+01	-3.326E+03	 2.430E+02	-4.206E+02	-1.428E+02	-7.922E-01	-6.494E+00	-6.733E+03	 1.100E+02	-3.615E+01	-1.428E+02	-9.478E-01	-9.299E-02	 1.742E+05	-1.255E+03	 4.100E+03	 9.641E+05	 5.190E+05	-1.299E+05	 1.278E+01	 5.079E-02	 1.400E-01	 1.245E+04	 7.999E+00	 4.126E+00	 1.500E+01	 1.136E+03
    0.0450	 1.261E+01	-0.000E+00	 0.000E+00	 2.659E-02	-2.463E-03	 0.000E+00	 5.000E+00	 2.160E+00	 7.995E+00	 7.648E+02	-8.246E-05	-1.302E-05	 0.000E+00	-2.861E+01	 2.231E+00	 1.605E+01	-8.784E+00	 1.023E+02	 1.049E+02	 1.898E+02	 1.799E+02	 1.178E+02	 2.847E+02	-3.736E+01	 3.165E+02	-1.940E+03	-8.840E+01	 8.444E+00	 1.257E+01	-3.327E+03	 2.908E+02	-4.336E+02	-1.703E+02	 1.254E+00	-7.482E+00	-6.735E+03	 1.243E+02	 2.164E+01	-1.703E+02	-8.725E-01	-8.942E-02	 1.844E+05	-1.512E+03	 3.918E+03	 1.049E+06	 5.558E+05	-1.069E+05	 1.214E+01	 6.445E-02	 1.642E-01	 1.245E+04	 7.997E+00	 4.342E+00	 1.496E+01	 1.131E+03
    0.0500	 1.258E+01	-0.000E+00	 0.000E+00	 3.388E-02	-3.462E-03	 0.000E+00	 5.000E+00	 2.400E+00	 7.992E+00	 7.638E+02	-9.984E-05	-1.780E-05	 0.000E+00	-3.400E+01	 6.489E+00	 1.541E+01	-1.029E+01	 1.021E+02	 1.225E+02	 1.943E+02	 1.829E+02	 1.218E+02	 2.897E+02	-3.058E+01	 3.732E+02	-1.950E+03	-8.499E+01	 8.185E+00	 1.459E+01	-3.329E+03	 3.414E+02	-4.539E+02	-1.969E+02	 2.606E+00	-8.425E+00	-6.736E+03	 1.368E+02	 7.380E+01	-1.969E+02	-7.385E-01	-9.469E-02	 1.959E+05	-1.778E+03	 3.876E+03	 1.141E+06	 5.963E+05	-8.604E+04	 1.205E+01	 7.167E-02	 1.770E-01	 1.245E+04	 7.994E+00	 4.374E+00	 1.492E+01	 1.127E+03
    0.0550	 1.289E+01	-0.000E+00	 0.000E+00	 4.223E-02	-4.720E-03	 0.000E+00	 5.000E+00	 2.639E+00	 7.988E+00	 7.628E+02	-1.188E-04	-2.368E-05	 0.000E+00	-3.826E+01	 1.054E+01	 1.672E+01	-1.174E+01	 1.022E+02	 1.400E+02	 2.176E+02	 2.046E+02	 1.373E+02	 3.155E+02	-3.345E+01	 4.324E+02	-1.953E+03	-8.976E+01	 6.512E+00	 1.663E+01	-3.330E+03	 3.944E+02	-4.616E+02	-2.215E+02	 6.207E+00	-9.284E+00	-6.737E+03	 1.465E+02	 1.557E+02	-2.215E+02	-7.257E-01	-7.739E-02	 2.070E+05	-2.052E+03	 3.915E+03	 1.231E+06	 6.369E+05	-6.541E+04	 1.230E+01	 7.262E-02	 1.795E-01	 1.245E+04	 7.991E+00	 4.282E+00	 1.488E+01	 1.122E+03
    0.0600	 1.278E+01	-0.000E+00	 0.000E+00	 5.165E-02	-6.267E-03	 0.000E+00	 5.000E+00	 2.879E+00	 7.984E+00	 7.619E+02	-1.391E-04	-3.080E-05	 0.000E+00	-4.274E+01	 1.532E+01	 1.737E+01	-1.326E+01	 1.021E+02	 1.586E+02	 2.366E+02	 2.219E+02	 1.505E+02	 3.355E+02	-3.547E+01	 4.935E+02	-1.958E+03	-9.109E+01	 5.253E+00	 1.867E+01	-3.331E+03	 4.495E+02	-4.748E+02	-2.441E+02	 9.229E+00	-1.003E+01	-6.739E+03	 1.529E+02	 2.333E+02	-2.441E+02	-6.612E-01	-6.762E-02	 2.150E+05	-2.299E+03	 3.854E+03	 1.305E+06	 6.656E+05	-4.678E+04	 1.213E+01	 8.022E-02	 1.917E-01	 1.245E+04	 7.988E+00	 4.340E+00	 1.485E+01	 1.118E+03
    0.0650	 1.288E+01	-0.000E+00	 0.000E+00	 6.217E-02	-8.133E-03	 0.000E+00	 5.000E+00	 3.118E+00	 7.980E+00	 7.611E+02	-1.606E-04	-3.928E-05	 0.000E+00	-4.767E+01	 2.116E+01	 1.694E+01	-1.488E+01	 1.020E+02	 1.787E+02	 2.470E+02	 2.304E+02	 1.595E+02	 3.460E+02	-3.037E+01	 5.559E+02	-1.968E+03	-8.642E+01	 4.703E+00	 2.068E+01	-3.333E+03	 5.063E+02	-4.970E+02	-2.639E+02	 1.123E+01	-1.064E+01	-6.740E+03	 1.552E+02	 3.005E+02	-2.639E+02	-5.233E-01	-6.994E-02	 2.236E+05	-2.554E+03	 3.849E+03	 1.383E+06	 6.963E+05	-2.906E+04	 1.218E+01	 8.401E-02	 1.978E-01	 1.245E+04	 7.984E+00	 4.322E+00	 1.482E+01	 1.115E+03
    0.0700	 1.294E+01	-0.000E+00	 0.000E+00	 7.378E-02	-1.035E-02	 0.000E+00	 5.000E+00	 3.358E+00	 7.975E+00	 7.603E+02	-1.834E-04	-4.926E-05	 0.000E+00	-5.144E+01	 2.696E+01	 1.801E+01	-1.642E+01	 1.019E+02	 1.987E+02	 2.726E+02	 2.543E+02	 1.789E+02	 3.730E+02	-3.122E+01	 6.192E+02	-1.973E+03	-8.689E+01	 3.173E+00	 2.262E+01	-3.335E+03	 5.641E+02	-5.103E+02	-2.801E+02	 1.484E+01	-1.108E+01	-6.742E+03	 1.527E+02	 3.888E+02	-2.801E+02	-4.709E-01	-5.514E-02	 2.311E+05	-2.789E+03	 3.827E+03	 1.456E+06	 7.136E+05	-1.269E+04	 1.217E+01	 8.845E-02	 2.046E-01	 1.245E+04	 7.979E+00	 4.321E+00	 1.478E+01	 1.111E+03
    0.0750	 1.289E+01	-0.000E+00	 0.000E+00	 8.649E-02	-1.294E-02	 0.000E+00	 5.000E+00	 3.597E+00	 7.969E+00	 7.596E+02	-2.072E-04	-6.086E-05	 0.000E+00	-5.522E+01	 3.554E+01	 1.800E+01	-1.797E+01	 1.018E+02	 2.186E+02	 2.868E+02	 2.666E+02	 1.955E+02	 3.932E+02	-3.021E+01	 6.827E+02	-1.988E+03	-8.293E+01	 2.337E+00	 2.447E+01	-3.337E+03	 6.227E+02	-5.349E+02	-2.928E+02	 1.757E+01	-1.130E+01	-6.744E+03	 1.447E+02	 4.660E+02	-2.928E+02	-3.786E-01	-5.068E-02	 2.379E+05	-3.025E+03	 3.792E+03	 1.524E+06	 7.372E+05	 1.996E+03	 1.207E+01	 9.492E-02	 2.141E-01	 1.245E+04	 7.974E+00	 4.354E+00	 1.476E+01	 1.108E+03
    0.0800	 1.264E+01	-0.000E+00	 0.000E+00	 1.003E-01	-1.593E-02	 0.000E+00	 5.000E+00	 3.836E+00	 7.963E+00	 7.589E+02	-2.319E-04	-7.422E-05	 0.000E+00	-5.849E+01	 4.090E+01	 1.875E+01	-1.956E+01	 1.017E+02	 2.412E+02	 3.157E+02	 2.935E+02	 2.144E+02	 4.160E+02	-2.818E+01	 7.460E+02	-1.990E+03	-7.800E+01	 1.030E+00	 2.618E+01	-3.339E+03	 6.816E+02	-5.492E+02	-3.017E+02	 2.078E+01	-1.131E+01	-6.746E+03	 1.309E+02	 5.542E+02	-3.017E+02	-2.630E-01	-4.152E-02	 2.432E+05	-3.236E+03	 3.713E+03	 1.585E+06	 7.541E+05	 1.390E+04	 1.176E+01	 1.066E-01	 2.307E-01	 1.245E+04	 7.969E+00	 4.466E+00	 1.473E+01	 1.105E+03
    0.0850	 1.269E+01	-0.000E+00	 0.000E+00	 1.152E-01	-1.935E-02	 0.000E+00	 5.000E+00	 4.075E+00	 7.956E+00	 7.583E+02	-2.575E-04	-8.947E-05	 0.000E+00	-6.133E+01	 4.961E+01	 1.881E+01	-2.108E+01	 1.016E+02	 2.628E+02	 3.355E+02	 3.113E+02	 2.338E+02	 4.375E+02	-2.503E+01	 8.086E+02	-2.002E+03	-7.064E+01	 1.873E-01	 2.774E+01	-3.341E+03	 7.403E+02	-5.733E+02	-3.065E+02	 2.352E+01	-1.106E+01	-6.748E+03	 1.103E+02	 6.344E+02	-3.065E+02	-1.470E-01	-3.741E-02	 2.496E+05	-3.459E+03	 3.705E+03	 1.651E+06	 7.748E+05	 2.538E+04	 1.175E+01	 1.114E-01	 2.373E-01	 1.245E+04	 7.963E+00	 4.468E+00	 1.471E+01	 1.103E+03
    0.0900	 1.291E+01	-0.000E+00	 0.000E+00	 1.312E-01	-2.321E-02	 0.000E+00	 5.000E+00	 4.313E+00	 7.949E+00	 7.578E+02	-2.838E-04	-1.067E-04	 0.000E+00	-6.284E+01	 5.777E+01	 2.003E+01	-2.250E+01	 1.016E+02	 2.845E+02	 3.691E+02	 3.428E+02	 2.615E+02	 4.711E+02	-2.631E+01	 8.702E+02	-2.008E+03	-6.606E+01	-1.311E+00	 2.912E+01	-3.343E+03	 7.985E+02	-5.898E+02	-3.075E+02	 2.731E+01	-1.053E+01	-6.750E+03	 8.281E+01	 7.284E+02	-3.075E+02	-7.978E-02	-2.111E-02	 2.560E+05	-3.687E+03	 3.738E+03	 1.716E+06	 7.963E+05	 3.682E+04	 1.191E+01	 1.111E-01	 2.369E-01	 1.245E+04	 7.957E+00	 4.405E+00	 1.469E+01	 1.100E+03
    0.0950	 1.286E+01	-0.000E+00	 0.000E+00	 1.482E-01	-2.754E-02	 0.000E+00	 5.000E+00	 4.552E+00	 7.942E+00	 7.573E+02	-3.106E-04	-1.261E-04	 0.000E+00	-6.381E+01	 6.665E+01	 2.093E+01	-2.388E+01	 1.015E+02	 3.066E+02	 4.014E+02	 3.731E+02	 2.892E+02	 5.026E+02	-2.707E+01	 9.303E+02	-2.016E+03	-5.890E+01	-2.552E+00	 3.031E+01	-3.345E+03	 8.560E+02	-6.090E+02	-3.051E+02	 3.072E+01	-9.717E+00	-6.753E+03	 4.793E+01	 8.179E+02	-3.051E+02	 1.067E-02	-8.635E-03	 2.601E+05	-3.855E+03	 3.698E+03	 1.768E+06	 7.934E+05	 4.572E+04	 1.179E+01	 1.176E-01	 2.452E-01	 1.245E+04	 7.950E+00	 4.443E+00	 1.467E+01	 1.098E+03
    0.1000	 1.305E+01	-0.000E+00	 0.000E+00	 1.663E-01	-3.235E-02	 0.000E+00	 5.000E+00	 4.790E+00	 7.934E+00	 7.569E+02	-3.377E-04	-1.478E-04	 0.000E+00	-6.436E+01	 7.842E+01	 2.078E+01	-2.519E+01	 1.015E+02	 3.281E+02	 4.225E+02	 3.923E+02	 3.145E+02	 5.283E+02	-2.404E+01	 9.885E+02	-2.032E+03	-4.780E+01	-3.108E+00	 3.129E+01	-3.347E+03	 9.122E+02	-6.387E+02	-2.997E+02	 3.322E+01	-8.590E+00	-6.755E+03	 5.320E+00	 8.938E+02	-2.997E+02	 1.293E-01	-5.926E-03	 2.653E+05	-4.039E+03	 3.717E+03	 1.825E+06	 7.936E+05	 5.480E+04	 1.192E+01	 1.175E-01	 2.448E-01	 1.245E+04	 7.943E+00	 4.391E+00	 1.465E+01	 1.096E+03
    0.1050	 1.294E+01	-0.000E+00	 0.000E+00	 1.855E-01	-3.763E-02	 0.000E+00	 5.000E+00	 5.028E+00	 7.926E+00	 7.565E+02	-3.649E-04	-1.717E-04	 0.000E+00	-6.316E+01	 8.669E+01	 2.256E+01	-2.636E+01	 1.015E+02	 3.503E+02	 4.693E+02	 4.370E+02	 3.502E+02	 5.694E+02	-2.541E+01	 1.045E+03	-2.034E+03	-4.068E+01	-4.703E+00	 3.203E+01	-3.350E+03	 9.670E+02	-6.515E+02	-2.916E+02	 3.716E+01	-7.153E+00	-6.757E+03	-4.500E+01	 9.902E+02	-2.916E+02	 2.035E-01	 1.451E-02	 2.685E+05	-4.169E+03	 3.666E+03	 1.871E+06	 7.823E+05	 6.136E+04	 1.175E+01	 1.256E-01	 2.549E-01	 1.245E+04	 7.936E+00	 4.451E+00	 1.464E+01	 1.095E+03
    0.1100	 1.296E+01	-0.000E+00	 0.000E+00	 2.056E-01	-4.341E-02	 0.000E+00	 5.000E+00	 5.265E+00	 7.918E+00	 7.562E+02	-3.920E-04	-1.982E-04	 0.000E+00	-6.193E+01	 9.650E+01	 2.292E+01	-2.750E+01	 1.014E+02	 3.731E+02	 5.035E+02	 4.690E+02	 3.788E+02	 5.979E+02	-2.242E+01	 1.099E+03	-2.041E+03	-2.780E+01	-5.425E+00	 3.253E+01	-3.353E+03	 1.020E+03	-6.738E+02	-2.817E+02	 3.971E+01	-5.397E+00	-6.760E+03	-1.032E+02	 1.068E+03	-2.817E+02	 3.461E-01	 1.936E-02	 2.723E+05	-4.296E+03	 3.648E+03	 1.919E+06	 7.730E+05	 6.713E+04	 1.171E+01	 1.301E-01	 2.604E-01	 1.245E+04	 7.929E+00	 4.463E+00	 1.462E+01	 1.093E+03
    0.1150	 1.286E+01	-0.000E+00	 0.000E+00	 2.267E-01	-4.968E-02	 0.000E+00	 5.000E+00	 5.503E+00	 7.911E+00	 7.559E+02	-4.189E-04	-2.272E-04	 0.000E+00	-5.902E+01	 1.060E+02	 2.457E+01	-2.846E+01	 1.014E+02	 3.950E+02	 5.521E+02	 5.156E+02	 4.175E+02	 6.409E+02	-2.259E+01	 1.150E+03	-2.043E+03	-1.862E+01	-6.715E+00	 3.279E+01	-3.355E+03	 1.071E+03	-6.888E+02	-2.702E+02	 4.323E+01	-3.319E+00	-6.763E+03	-1.692E+02	 1.157E+03	-2.702E+02	 4.312E-01	 3.772E-02	 2.756E+05	-4.463E+03	 3.626E+03	 1.963E+06	 7.832E+05	 7.124E+04	 1.155E+01	 1.385E-01	 2.708E-01	 1.245E+04	 7.922E+00	 4.520E+00	 1.461E+01	 1.092E+03
    0.1200	 1.246E+01	-0.000E+00	 0.000E+00	 2.488E-01	-5.644E-02	 0.000E+00	 5.000E+00	 5.740E+00	 7.903E+00	 7.557E+02	-4.453E-04	-2.588E-04	 0.000E+00	-5.605E+01	 1.208E+02	 2.481E+01	-2.934E+01	 1.013E+02	 4.162E+02	 5.830E+02	 5.445E+02	 4.532E+02	 6.777E+02	-2.042E+01	 1.199E+03	-2.061E+03	-5.698E+00	-7.060E+00	 3.281E+01	-3.358E+03	 1.120E+03	-7.194E+02	-2.581E+02	 4.554E+01	-9.186E-01	-6.765E+03	-2.430E+02	 1.225E+03	-2.581E+02	 5.285E-01	 4.400E-02	 2.765E+05	-4.512E+03	 3.525E+03	 1.991E+06	 7.641E+05	 7.143E+04	 1.110E+01	 1.584E-01	 2.945E-01	 1.245E+04	 7.916E+00	 4.702E+00	 1.461E+01	 1.091E+03
    0.1250	 1.245E+01	-0.000E+00	 0.000E+00	 2.719E-01	-6.368E-02	 0.000E+00	 5.000E+00	 5.977E+00	 7.895E+00	 7.555E+02	-4.710E-04	-2.931E-04	 0.000E+00	-5.166E+01	 1.294E+02	 2.590E+01	-3.012E+01	 1.013E+02	 4.387E+02	 6.330E+02	 5.924E+02	 4.885E+02	 7.137E+02	-1.712E+01	 1.245E+03	-2.059E+03	 7.167E+00	-7.864E+00	 3.257E+01	-3.361E+03	 1.167E+03	-7.338E+02	-2.460E+02	 4.803E+01	 1.781E+00	-6.768E+03	-3.240E+02	 1.299E+03	-2.460E+02	 6.758E-01	 5.305E-02	 2.797E+05	-4.666E+03	 3.536E+03	 2.032E+06	 7.738E+05	 7.229E+04	 1.103E+01	 1.646E-01	 3.017E-01	 1.245E+04	 7.909E+00	 4.728E+00	 1.460E+01	 1.090E+03
    0.1300	 1.266E+01	-0.000E+00	 0.000E+00	 2.959E-01	-7.140E-02	 0.000E+00	 5.000E+00	 6.214E+00	 7.888E+00	 7.554E+02	-4.959E-04	-3.302E-04	 0.000E+00	-4.598E+01	 1.451E+02	 2.734E+01	-3.066E+01	 1.014E+02	 4.582E+02	 6.789E+02	 6.364E+02	 5.368E+02	 7.677E+02	-1.830E+01	 1.288E+03	-2.075E+03	 1.609E+01	-8.555E+00	 3.210E+01	-3.364E+03	 1.212E+03	-7.587E+02	-2.343E+02	 5.101E+01	 4.789E+00	-6.771E+03	-4.123E+02	 1.370E+03	-2.343E+02	 7.072E-01	 7.246E-02	 2.833E+05	-4.833E+03	 3.596E+03	 2.073E+06	 7.853E+05	 7.358E+04	 1.117E+01	 1.612E-01	 2.975E-01	 1.245E+04	 7.902E+00	 4.662E+00	 1.459E+01	 1.090E+03
    0.1350	 1.296E+01	-0.000E+00	 0.000E+00	 3.208E-01	-7.958E-02	 0.000E+00	 5.000E+00	 6.450E+00	 7.882E+00	 7.553E+02	-5.196E-04	-3.702E-04	 0.000E+00	-3.935E+01	 1.574E+02	 2.896E+01	-3.110E+01	 1.014E+02	 4.784E+02	 7.339E+02	 6.894E+02	 5.831E+02	 8.179E+02	-1.961E+01	 1.329E+03	-2.079E+03	 2.586E+01	-9.255E+00	 3.139E+01	-3.367E+03	 1.255E+03	-7.757E+02	-2.241E+02	 5.364E+01	 8.066E+00	-6.774E+03	-5.069E+02	 1.437E+03	-2.241E+02	 7.884E-01	 8.924E-02	 2.868E+05	-5.007E+03	 3.679E+03	 2.114E+06	 7.978E+05	 7.508E+04	 1.142E+01	 1.539E-01	 2.884E-01	 1.245E+04	 7.896E+00	 4.558E+00	 1.459E+01	 1.089E+03
    0.1400	 1.264E+01	-0.000E+00	 0.000E+00	 3.467E-01	-8.819E-02	 0.000E+00	 5.000E+00	 6.687E+00	 7.875E+00	 7.552E+02	-5.417E-04	-4.130E-04	 0.000E+00	-3.192E+01	 1.711E+02	 3.053E+01	-3.141E+01	 1.015E+02	 4.980E+02	 7.890E+02	 7.426E+02	 6.321E+02	 8.713E+02	-2.008E+01	 1.368E+03	-2.087E+03	 3.529E+01	-9.736E+00	 3.047E+01	-3.370E+03	 1.295E+03	-7.949E+02	-2.158E+02	 5.601E+01	 1.160E+01	-6.777E+03	-6.075E+02	 1.498E+03	-2.158E+02	 8.579E-01	 1.060E-01	 2.864E+05	-5.083E+03	 3.623E+03	 2.129E+06	 7.948E+05	 7.217E+04	 1.104E+01	 1.713E-01	 3.080E-01	 1.245E+04	 7.891E+00	 4.710E+00	 1.459E+01	 1.089E+03
    0.1450	 1.268E+01	-0.000E+00	 0.000E+00	 3.734E-01	-9.721E-02	 0.000E+00	 5.000E+00	 6.923E+00	 7.869E+00	 7.552E+02	-5.620E-04	-4.587E-04	 0.000E+00	-2.480E+01	 1.866E+02	 3.047E+01	-3.170E+01	 1.015E+02	 5.180E+02	 8.288E+02	 7.805E+02	 6.713E+02	 9.098E+02	-1.454E+01	 1.403E+03	-2.100E+03	 4.949E+01	-9.272E+00	 2.936E+01	-3.373E+03	 1.333E+03	-8.234E+02	-2.100E+02	 5.678E+01	 1.536E+01	-6.781E+03	-7.133E+02	 1.535E+03	-2.100E+02	 9.895E-01	 1.048E-01	 2.887E+05	-5.213E+03	 3.658E+03	 2.159E+06	 8.048E+05	 7.022E+04	 1.103E+01	 1.744E-01	 3.113E-01	 1.245E+04	 7.885E+00	 4.714E+00	 1.459E+01	 1.089E+03
    0.1500	 1.287E+01	-0.000E+00	 0.000E+00	 4.009E-01	-1.066E-01	 0.000E+00	 5.000E+00	 7.159E+00	 7.864E+00	 7.552E+02	-5.804E-04	-5.073E-04	 0.000E+00	-1.521E+01	 2.001E+02	 3.321E+01	-3.170E+01	 1.017E+02	 5.363E+02	 9.002E+02	 8.500E+02	 7.311E+02	 9.782E+02	-1.637E+01	 1.437E+03	-2.103E+03	 5.453E+01	-9.979E+00	 2.806E+01	-3.377E+03	 1.369E+03	-8.349E+02	-2.068E+02	 5.950E+01	 1.932E+01	-6.784E+03	-8.234E+02	 1.594E+03	-2.068E+02	 1.013E+00	 1.326E-01	 2.903E+05	-5.455E+03	 3.621E+03	 2.185E+06	 8.389E+05	 1.143E+05	 1.115E+01	 1.704E-01	 3.059E-01	 1.245E+04	 7.881E+00	 4.658E+00	 1.459E+01	 1.089E+03
    0.1550	 1.309E+01	-0.000E+00	 0.000E+00	 4.293E-01	-1.164E-01	 0.000E+00	 5.000E+00	 7.395E+00	 7.860E+00	 7.552E+02	-5.963E-04	-5.588E-04	 0.000E+00	-5.593E+00	 2.161E+02	 3.474E+01	-3.172E+01	 1.018E+02	 5.544E+02	 9.590E+02	 9.070E+02	 7.874E+02	 1.054E+03	-1.748E+01	 1.469E+03	-2.123E+03	 5.153E+01	-9.500E+00	 2.659E+01	-3.380E+03	 1.402E+03	-8.624E+02	-2.068E+02	 6.078E+01	 2.345E+01	-6.787E+03	-9.374E+02	 1.628E+03	-2.068E+02	 1.063E+00	 1.500E-01	 2.929E+05	-5.594E+03	 3.702E+03	 2.216E+06	 8.469E+05	 1.109E+05	 1.132E+01	 1.653E-01	 2.997E-01	 1.245E+04	 7.877E+00	 4.588E+00	 1.459E+01	 1.089E+03
    0.1600	 1.291E+01	-0.000E+00	 0.000E+00	 4.586E-01	-1.265E-01	 0.000E+00	 5.000E+00	 7.630E+00	 7.856E+00	 7.553E+02	-6.095E-04	-6.133E-04	 0.000E+00	 4.590E+00	 2.316E+02	 3.652E+01	-3.150E+01	 1.019E+02	 5.718E+02	 1.023E+03	 9.696E+02	 8.422E+02	 1.100E+03	-1.752E+01	 1.498E+03	-2.119E+03	 6.846E+01	-9.758E+00	 2.503E+01	-3.383E+03	 1.435E+03	-8.725E+02	-2.113E+02	 6.230E+01	 2.769E+01	-6.791E+03	-1.054E+03	 1.667E+03	-2.113E+02	 1.119E+00	 1.645E-01	 2.930E+05	-5.664E+03	 3.693E+03	 2.231E+06	 8.447E+05	 1.047E+05	 1.109E+01	 1.769E-01	 3.124E-01	 1.245E+04	 7.874E+00	 4.681E+00	 1.459E+01	 1.089E+03
    0.1650	 1.268E+01	-0.000E+00	 0.000E+00	 4.886E-01	-1.369E-01	 0.000E+00	 5.000E+00	 7.866E+00	 7.853E+00	 7.554E+02	-6.195E-04	-6.707E-04	 0.000E+00	 1.451E+01	 2.486E+02	 3.726E+01	-3.135E+01	 1.021E+02	 5.896E+02	 1.078E+03	 1.023E+03	 8.938E+02	 1.160E+03	-1.406E+01	 1.527E+03	-2.134E+03	 7.372E+01	-8.837E+00	 2.335E+01	-3.387E+03	 1.466E+03	-8.980E+02	-2.184E+02	 6.244E+01	 3.203E+01	-6.794E+03	-1.172E+03	 1.681E+03	-2.184E+02	 1.201E+00	 1.705E-01	 2.932E+05	-5.719E+03	 3.679E+03	 2.245E+06	 8.421E+05	 9.673E+04	 1.081E+01	 1.922E-01	 3.292E-01	 1.245E+04	 7.871E+00	 4.802E+00	 1.459E+01	 1.090E+03
    0.1700	 1.266E+01	-0.000E+00	 0.000E+00	 5.194E-01	-1.475E-01	 0.000E+00	 5.000E+00	 8.102E+00	 7.851E+00	 7.555E+02	-6.262E-04	-7.310E-04	 0.000E+00	 2.539E+01	 2.653E+02	 3.902E+01	-3.105E+01	 1.022E+02	 6.066E+02	 1.145E+03	 1.088E+03	 9.538E+02	 1.226E+03	-1.277E+01	 1.554E+03	-2.142E+03	 7.857E+01	-8.316E+00	 2.160E+01	-3.390E+03	 1.495E+03	-9.152E+02	-2.292E+02	 6.312E+01	 3.642E+01	-6.798E+03	-1.290E+03	 1.699E+03	-2.292E+02	 1.239E+00	 1.863E-01	 2.946E+05	-5.802E+03	 3.720E+03	 2.265E+06	 8.441E+05	 8.880E+04	 1.074E+01	 1.976E-01	 3.349E-01	 1.245E+04	 7.869E+00	 4.831E+00	 1.460E+01	 1.090E+03
    0.1750	 1.286E+01	-0.000E+00	 0.000E+00	 5.510E-01	-1.584E-01	 0.000E+00	 5.000E+00	 8.337E+00	 7.850E+00	 7.556E+02	-6.293E-04	-7.941E-04	 0.000E+00	 3.678E+01	 2.821E+02	 4.125E+01	-3.067E+01	 1.024E+02	 6.231E+02	 1.218E+03	 1.160E+03	 1.018E+03	 1.299E+03	-1.376E+01	 1.580E+03	-2.148E+03	 8.132E+01	-7.798E+00	 1.980E+01	-3.394E+03	 1.523E+03	-9.294E+02	-2.430E+02	 6.381E+01	 4.081E+01	-6.801E+03	-1.408E+03	 1.713E+03	-2.430E+02	 1.257E+00	 2.061E-01	 2.968E+05	-5.910E+03	 3.809E+03	 2.290E+06	 8.495E+05	 8.123E+04	 1.088E+01	 1.922E-01	 3.288E-01	 1.245E+04	 7.868E+00	 4.768E+00	 1.460E+01	 1.091E+03
    0.1800	 1.283E+01	-0.000E+00	 0.000E+00	 5.833E-01	-1.694E-01	 0.000E+00	 5.000E+00	 8.573E+00	 7.849E+00	 7.558E+02	-6.282E-04	-8.601E-04	 0.000E+00	 4.825E+01	 2.993E+02	 4.349E+01	-3.027E+01	 1.026E+02	 6.396E+02	 1.294E+03	 1.233E+03	 1.085E+03	 1.373E+03	-1.494E+01	 1.605E+03	-2.155E+03	 8.351E+01	-7.087E+00	 1.801E+01	-3.398E+03	 1.551E+03	-9.431E+02	-2.597E+02	 6.417E+01	 4.516E+01	-6.805E+03	-1.525E+03	 1.719E+03	-2.597E+02	 1.271E+00	 2.255E-01	 2.972E+05	-5.973E+03	 3.851E+03	 2.303E+06	 8.484E+05	 7.184E+04	 1.080E+01	 1.973E-01	 3.339E-01	 1.245E+04	 7.867E+00	 4.802E+00	 1.461E+01	 1.092E+03
    0.1850	 1.309E+01	-0.000E+00	 0.000E+00	 6.164E-01	-1.805E-01	 0.000E+00	 5.000E+00	 8.808E+00	 7.850E+00	 7.560E+02	-6.227E-04	-9.289E-04	 0.000E+00	 5.900E+01	 3.176E+02	 4.480E+01	-2.991E+01	 1.028E+02	 6.564E+02	 1.361E+03	 1.298E+03	 1.146E+03	 1.440E+03	-1.307E+01	 1.630E+03	-2.164E+03	 8.794E+01	-5.787E+00	 1.624E+01	-3.401E+03	 1.578E+03	-9.614E+02	-2.788E+02	 6.348E+01	 4.944E+01	-6.809E+03	-1.638E+03	 1.708E+03	-2.788E+02	 1.312E+00	 2.344E-01	 2.997E+05	-6.098E+03	 3.965E+03	 2.329E+06	 8.620E+05	 6.370E+04	 1.101E+01	 1.884E-01	 3.240E-01	 1.245E+04	 7.868E+00	 4.711E+00	 1.462E+01	 1.092E+03
    0.1900	 1.326E+01	-0.000E+00	 0.000E+00	 6.502E-01	-1.918E-01	 0.000E+00	 5.000E+00	 9.044E+00	 7.851E+00	 7.562E+02	-6.123E-04	-1.000E-03	 0.000E+00	 7.062E+01	 3.341E+02	 4.800E+01	-2.948E+01	 1.031E+02	 6.731E+02	 1.450E+03	 1.386E+03	 1.221E+03	 1.525E+03	-1.484E+01	 1.655E+03	-2.165E+03	 8.720E+01	-5.095E+00	 1.452E+01	-3.405E+03	 1.604E+03	-9.678E+02	-2.997E+02	 6.382E+01	 5.358E+01	-6.813E+03	-1.748E+03	 1.707E+03	-2.998E+02	 1.295E+00	 2.616E-01	 3.013E+05	-6.193E+03	 4.057E+03	 2.349E+06	 8.656E+05	 5.481E+04	 1.113E+01	 1.842E-01	 3.190E-01	 1.245E+04	 7.869E+00	 4.663E+00	 1.462E+01	 1.093E+03
    0.1950	 1.323E+01	-0.000E+00	 0.000E+00	 6.846E-01	-2.031E-01	 0.000E+00	 5.000E+00	 9.279E+00	 7.854E+00	 7.564E+02	-5.965E-04	-1.075E-03	 0.000E+00	 8.118E+01	 3.535E+02	 4.966E+01	-2.913E+01	 1.033E+02	 6.896E+02	 1.523E+03	 1.457E+03	 1.288E+03	 1.599E+03	-1.469E+01	 1.680E+03	-2.176E+03	 8.983E+01	-3.527E+00	 1.291E+01	-3.409E+03	 1.631E+03	-9.847E+02	-3.221E+02	 6.275E+01	 5.756E+01	-6.816E+03	-1.854E+03	 1.683E+03	-3.221E+02	 1.305E+00	 2.735E-01	 3.018E+05	-6.251E+03	 4.103E+03	 2.361E+06	 8.650E+05	 4.474E+04	 1.105E+01	 1.891E-01	 3.240E-01	 1.245E+04	 7.871E+00	 4.697E+00	 1.463E+01	 1.094E+03
    0.2000	 1.316E+01	-0.000E+00	 0.000E+00	 7.198E-01	-2.144E-01	 0.000E+00	 5.000E+00	 9.515E+00	 7.857E+00	 7.567E+02	-5.750E-04	-1.152E-03	 0.000E+00	 9.120E+01	 3.722E+02	 5.153E+01	-2.885E+01	 1.036E+02	 7.069E+02	 1.600E+03	 1.532E+03	 1.357E+03	 1.675E+03	-1.303E+01	 1.706E+03	-2.183E+03	 9.246E+01	-1.900E+00	 1.140E+01	-3.413E+03	 1.658E+03	-9.981E+02	-3.452E+02	 6.148E+01	 6.134E+01	-6.820E+03	-1.953E+03	 1.654E+03	-3.452E+02	 1.314E+00	 2.860E-01	 3.023E+05	-6.299E+03	 4.143E+03	 2.373E+06	 8.641E+05	 3.377E+04	 1.094E+01	 1.961E-01	 3.313E-01	 1.245E+04	 7.874E+00	 4.747E+00	 1.464E+01	 1.095E+03
    0.2050	 1.289E+01	-0.000E+00	 0.000E+00	 7.556E-01	-2.256E-01	 0.000E+00	 5.000E+00	 9.751E+00	 7.861E+00	 7.569E+02	-5.474E-04	-1.231E-03	 0.000E+00	 1.009E+02	 3.912E+02	 5.380E+01	-2.861E+01	 1.039E+02	 7.244E+02	 1.683E+03	 1.613E+03	 1.431E+03	 1.756E+03	-1.244E+01	 1.732E+03	-2.189E+03	 9.402E+01	-2.495E-01	 1.004E+01	-3.417E+03	 1.685E+03	-1.009E+03	-3.683E+02	 6.020E+01	 6.487E+01	-6.824E+03	-2.046E+03	 1.621E+03	-3.683E+02	 1.302E+00	 3.024E-01	 3.016E+05	-6.302E+03	 4.140E+03	 2.376E+06	 8.576E+05	 2.079E+04	 1.062E+01	 2.143E-01	 3.503E-01	 1.245E+04	 7.877E+00	 4.889E+00	 1.465E+01	 1.097E+03
    0.2100	 1.315E+01	-0.000E+00	 0.000E+00	 7.921E-01	-2.368E-01	 0.000E+00	 5.000E+00	 9.986E+00	 7.865E+00	 7.572E+02	-5.134E-04	-1.314E-03	 0.000E+00	 1.096E+02	 4.111E+02	 5.542E+01	-2.850E+01	 1.041E+02	 7.425E+02	 1.759E+03	 1.688E+03	 1.500E+03	 1.831E+03	-1.052E+01	 1.760E+03	-2.197E+03	 9.763E+01	 1.825E+00	 8.855E+00	-3.420E+03	 1.713E+03	-1.023E+03	-3.909E+02	 5.814E+01	 6.813E+01	-6.828E+03	-2.131E+03	 1.575E+03	-3.909E+02	 1.305E+00	 3.111E-01	 3.044E+05	-6.406E+03	 4.268E+03	 2.403E+06	 8.643E+05	 9.461E+03	 1.084E+01	 2.042E-01	 3.397E-01	 1.246E+04	 7.881E+00	 4.795E+00	 1.467E+01	 1.098E+03
    0.2150	 1.310E+01	-0.000E+00	 0.000E+00	 8.292E-01	-2.479E-01	 0.000E+00	 5.000E+00	 1.022E+01	 7.871E+00	 7.576E+02	-4.725E-04	-1.398E-03	 0.000E+00	 1.189E+02	 4.293E+02	 5.939E+01	-2.837E+01	 1.045E+02	 7.605E+02	 1.863E+03	 1.789E+03	 1.589E+03	 1.931E+03	-1.373E+01	 1.788E+03	-2.197E+03	 9.579E+01	 3.181E+00	 7.845E+00	-3.424E+03	 1.741E+03	-1.024E+03	-4.123E+02	 5.745E+01	 7.109E+01	-6.832E+03	-2.208E+03	 1.543E+03	-4.123E+02	 1.234E+00	 3.434E-01	 3.045E+05	-6.440E+03	 4.324E+03	 2.411E+06	 8.614E+05	-3.692E+03	 1.075E+01	 2.100E-01	 3.453E-01	 1.246E+04	 7.885E+00	 4.836E+00	 1.468E+01	 1.099E+03
    0.2200	 1.255E+01	-0.000E+00	 0.000E+00	 8.669E-01	-2.589E-01	 0.000E+00	 5.000E+00	 1.046E+01	 7.876E+00	 7.579E+02	-4.243E-04	-1.486E-03	 0.000E+00	 1.256E+02	 4.500E+02	 6.057E+01	-2.852E+01	 1.048E+02	 7.799E+02	 1.937E+03	 1.862E+03	 1.658E+03	 2.003E+03	-1.177E+01	 1.818E+03	-2.206E+03	 1.017E+02	 5.740E+00	 7.060E+00	-3.428E+03	 1.771E+03	-1.039E+03	-4.323E+02	 5.452E+01	 7.372E+01	-6.836E+03	-2.276E+03	 1.480E+03	-4.323E+02	 1.241E+00	 3.463E-01	 3.016E+05	-6.432E+03	 4.271E+03	 2.395E+06	 8.478E+05	-1.998E+04	 1.016E+01	 2.471E-01	 3.827E-01	 1.246E+04	 7.890E+00	 5.119E+00	 1.469E+01	 1.101E+03
    0.2250	 1.208E+01	-0.000E+00	 0.000E+00	 9.052E-01	-2.697E-01	 0.000E+00	 5.000E+00	 1.070E+01	 7.883E+00	 7.583E+02	-3.684E-04	-1.575E-03	 0.000E+00	 1.314E+02	 4.712E+02	 6.225E+01	-2.888E+01	 1.050E+02	 8.006E+02	 2.016E+03	 1.939E+03	 1.727E+03	 2.075E+03	-6.839E+00	 1.848E+03	-2.210E+03	 1.085E+02	 8.288E+00	 6.487E+00	-3.432E+03	 1.801E+03	-1.049E+03	-4.500E+02	 5.146E+01	 7.599E+01	-6.840E+03	-2.335E+03	 1.415E+03	-4.501E+02	 1.253E+00	 3.503E-01	 2.992E+05	-6.359E+03	 4.241E+03	 2.382E+06	 8.339E+05	-3.794E+04	 9.653E+00	 2.870E-01	 4.209E-01	 1.246E+04	 7.896E+00	 5.394E+00	 1.471E+01	 1.102E+03