
Predictions were generated on 28-Nov-2023 at 18:23:18 using OpenFAST, compiled as a 64-bit application using double precision at commit v3.5.1-dirty
 linked with  NWTC Subroutine Library; ElastoDyn; InflowWind; AeroDyn; ServoDyn

Description from the FAST input file: FAST          Certification - Test #18: NREL 5.0 MW Baseline Wind Turbine (Onshore)

Time	Wind1VelX	Wind1VelY	Wind1VelZ	OoPDefl1	IPDefl1	TwstDefl1	BldPitch1	Azimuth	RotSpeed	GenSpeed	TTDspFA	TTDspSS	TTDspTwst	Spn2MLxb1	Spn2MLyb1	RootFxb1	RootFyb1	RootFzb1	RootMxb1	RootMyb1	RootMyc1	RootMyc2	RootMyc3	RootMzb1	RotTorq	LSSGagMya	LSSGagMza	YawBrFxp	YawBrFyp	YawBrFzp	YawBrMxp	YawBrMyp	YawBrMzp	TwrBsFxt	TwrBsFyt	TwrBsFzt	TwrBsMxt	TwrBsMyt	TwrBsMzt	NcIMURAys	NcIMUTAxs	RtFldFxh	RtFldFyh	RtFldFzh	RtFldMxh	RtFldMyh	RtFldMzh	RtVAvgxh	RtFldCp	RtFldCt	RtArea	RtSpeed	RtTSR	GenPwr	GenTq
(s)	(m/s)	(m/s)	(m/s)	(m)	(m)	(deg)	(deg)	(deg)	(rpm)	(rpm)	(m)	(m)	(deg)	(kN-m)	(kN-m)	(kN)	(kN)	(kN)	(kN-m)	(kN-m)	(kN-m)	(kN-m)	(kN-m)	(kN-m)	(kN-m)	(kN-m)	(kN-m)	(kN)	(kN)	(kN)	(kN-m)	(kN-m)	(kN-m)	(kN)	(kN)	(kN)	(kN-m)	(kN-m)	(kN-m)	(deg/s^2)	(m/s^2)	(N)	(N)	(N)	(N-m)	(N-m)	(N-m)	(m/s)	(-)	(-)	(m^2)	(rpm)	(-)	(kW)	(kN-m)
    0.0000	 5.978E+00	 5.115E-01	 2.130E+00	 0.000E+00	 0.000E+00	 0.000E+00	 5.000E+00	 0.000E+00	 8.000E+00	 7.760E+02	 0.000E+00	-0.000E+00	 0.000E+00	 2.595E+00	-7.585E+00	 9.479E+00	-2.405E-01	 1.019E+02	 1.288E+00	 8.235E+01	 8.192E+01	 5.888E+01	 1.502E+02	 1.101E-15	-5.107E-13	-1.935E+03	-6.764E+01	 1.560E+01	-1.272E-01	-3.323E+03	-1.857E+00	-4.092E+02	-3.092E-13	-1.418E+01	 3.535E-02	-6.730E+03	-6.884E-01	-3.279E+02	-3.092E-13	-9.618E-01	-1.731E-01	 1.168E+05	-1.122E+03	 2.361E+03	 5.868E+05	 3.182E+05	-4.006E+04	 5.738E+00	 3.413E-01	 4.652E-01	 1.245E+04	 8.000E+00	 9.189E+00	 1.181E+03	 1.540E+01
    0.1000	 1.305E+01	-0.000E+00	 0.000E+00	 1.663E-01	-3.235E-02	 0.000E+00	 5.000E+00	 4.790E+00	 7.934E+00	 7.569E+02	-3.377E-04	-1.478E-04	 0.000E+00	-6.436E+01	 7.842E+01	 2.078E+01	-2.519E+01	 1.015E+02	 3.281E+02	 4.225E+02	 3.923E+02	 3.145E+02	 5.283E+02	-2.404E+01	 9.885E+02	-2.032E+03	-4.780E+01	-3.108E+00	 3.129E+01	-3.347E+03	 9.122E+02	-6.387E+02	-2.997E+02	 3.322E+01	-8.590E+00	-6.755E+03	 5.320E+00	 8.938E+02	-2.997E+02	 1.293E-01	-5.926E-03	 2.653E+05	-4.039E+03	 3.717E+03	 1.825E+06	 7.936E+05	 5.480E+04	 1.192E+01	 1.175E-01	 2.448E-01	 1.245E+04	 7.943E+00	 4.391E+00	 1.096E+03	 1.465E+01
    0.2000	 1.316E+01	-0.000E+00	 0.000E+00	 7.198E-01	-2.144E-01	 0.000E+00	 5.000E+00	 9.515E+00	 7.857E+00	 7.567E+02	-5.750E-04	-1.152E-03	 0.000E+00	 9.120E+01	 3.722E+02	 5.153E+01	-2.885E+01	 1.036E+02	 7.069E+02	 1.600E+03	 1.532E+03	 1.357E+03	 1.675E+03	-1.303E+01	 1.706E+03	-2.183E+03	 9.246E+01	-1.900E+00	 1.140E+01	-3.413E+03	 1.658E+03	-9.981E+02	-3.452E+02	 6.148E+01	 6.134E+01	-6.820E+03	-1.953E+03	 1.654E+03	-3.452E+02	 1.314E+00	 2.860E-01	 3.023E+05	-6.299E+03	 4.143E+03	 2.373E+06	 8.641E+05	 3.377E+04	 1.094E+01	 1.961E-01	 3.313E-01	 1.245E+04	 7.874E+00	 4.747E+00	 1.095E+03	 1.464E+01
    0.3000	 1.181E+01	-0.000E+00	 0.000E+00	 1.533E+00	-4.050E-01	 0.000E+00	 5.000E+00	 1.427E+01	 7.985E+00	 7.676E+02	 1.652E-03	-3.210E-03	 0.000E+00	 1.120E+02	 7.859E+02	 1.047E+02	-4.727E+01	 1.106E+02	 1.148E+03	 3.497E+03	 3.383E+03	 3.038E+03	 3.426E+03	-5.463E+00	 2.380E+03	-2.193E+03	 2.365E+02	 5.012E+01	 2.239E+01	-3.487E+03	 2.295E+03	-1.054E+03	-4.595E+02	 3.643E+00	 6.771E+01	-6.895E+03	-2.051E+03	 3.106E+02	-4.595E+02	 3.103E-01	 5.768E-01	 2.785E+05	-5.898E+03	 5.280E+03	 2.231E+06	 7.232E+05	-2.952E+05	 9.001E+00	 3.352E-01	 4.505E-01	 1.246E+04	 7.986E+00	 5.851E+00	 1.143E+03	 1.507E+01
    0.4000	 1.191E+01	-0.000E+00	 0.000E+00	 2.427E+00	-5.479E-01	 0.000E+00	 5.000E+00	 1.907E+01	 7.992E+00	 7.848E+02	 9.614E-03	-6.232E-03	 0.000E+00	 1.240E+00	 1.228E+03	 1.572E+02	-7.041E+01	 1.115E+02	 1.427E+03	 5.434E+03	 5.289E+03	 4.648E+03	 5.100E+03	-1.488E+00	 2.201E+03	-1.993E+03	 3.561E+02	 8.797E+01	 3.120E+01	-3.540E+03	 2.091E+03	-9.099E+02	-6.023E+02	-1.008E+01	 2.901E+01	-6.947E+03	-6.073E+02	 8.214E+02	-6.022E+02	 2.362E-01	 8.914E-01	 2.719E+05	-5.260E+03	 6.342E+03	 2.187E+06	 6.191E+05	-5.967E+05	 9.164E+00	 3.118E-01	 4.243E-01	 1.246E+04	 7.994E+00	 5.753E+00	 1.222E+03	 1.575E+01
    0.5000	 1.173E+01	-0.000E+00	 0.000E+00	 3.242E+00	-7.059E-01	 0.000E+00	 5.000E+00	 2.387E+01	 8.030E+00	 7.868E+02	 2.632E-02	-9.656E-03	 0.000E+00	 1.059E+01	 1.635E+03	 1.825E+02	-7.714E+01	 1.127E+02	 1.585E+03	 6.632E+03	 6.469E+03	 5.692E+03	 6.048E+03	 1.029E+00	 1.155E+03	-1.735E+03	 6.788E+02	 1.029E+02	 2.814E+00	-3.549E+03	 1.135E+03	-8.006E+02	-2.427E+02	 5.364E+01	 1.283E+01	-6.956E+03	 4.685E+02	 4.522E+03	-2.426E+02	 1.595E+00	 1.061E+00	 2.841E+05	-5.022E+03	 7.295E+03	 2.348E+06	 5.355E+05	-8.304E+05	 9.529E+00	 2.991E-01	 4.101E-01	 1.245E+04	 8.028E+00	 5.555E+00	 1.231E+03	 1.583E+01
    0.6000	 1.061E+01	-0.000E+00	 0.000E+00	 3.802E+00	-8.336E-01	 0.000E+00	 5.000E+00	 2.870E+01	 8.050E+00	 7.779E+02	 5.299E-02	-1.263E-02	 0.000E+00	 8.224E+00	 1.901E+03	 1.861E+02	-9.890E+01	 1.157E+02	 1.986E+03	 6.990E+03	 6.790E+03	 6.254E+03	 6.299E+03	 1.803E-01	 1.083E+03	-1.630E+03	 1.092E+03	 1.544E+02	 2.049E+01	-3.515E+03	 1.051E+03	-6.703E+02	-1.563E+01	 9.211E+01	-3.756E+01	-6.923E+03	 2.176E+03	 8.691E+03	-1.545E+01	 1.082E+00	 9.465E-01	 2.859E+05	-4.442E+03	 7.280E+03	 2.414E+06	 4.400E+05	-8.994E+05	 9.310E+00	 3.309E-01	 4.327E-01	 1.245E+04	 8.053E+00	 5.701E+00	 1.190E+03	 1.548E+01
    0.7000	 1.040E+01	-0.000E+00	 0.000E+00	 3.955E+00	-9.501E-01	 0.000E+00	 5.000E+00	 3.352E+01	 8.029E+00	 7.736E+02	 8.862E-02	-1.520E-02	 0.000E+00	 1.655E+02	 1.976E+03	 1.822E+02	-1.086E+02	 1.230E+02	 2.430E+03	 6.915E+03	 6.677E+03	 6.482E+03	 6.114E+03	-1.099E+01	 1.463E+03	-1.485E+03	 1.599E+03	 2.256E+02	 7.258E+00	-3.462E+03	 1.488E+03	-5.044E+02	 3.736E+02	 1.352E+02	-5.881E+00	-6.870E+03	 1.492E+03	 1.404E+04	 3.740E+02	 1.072E-01	 7.091E-01	 3.004E+05	-4.179E+03	 6.184E+03	 2.598E+06	 4.332E+05	-7.547E+05	 1.004E+01	 2.840E-01	 3.912E-01	 1.244E+04	 8.048E+00	 5.284E+00	 1.171E+03	 1.531E+01
    0.8000	 1.016E+01	-0.000E+00	 0.000E+00	 3.741E+00	-9.860E-01	 0.000E+00	 5.000E+00	 3.836E+01	 8.124E+00	 7.795E+02	 1.313E-01	-1.794E-02	 0.000E+00	 2.842E+02	 1.872E+03	 1.808E+02	-1.210E+02	 1.330E+02	 2.815E+03	 6.688E+03	 6.417E+03	 6.255E+03	 5.669E+03	-1.885E+01	 2.202E+03	-1.129E+03	 1.953E+03	 2.743E+02	-7.701E+00	-3.417E+03	 2.288E+03	-2.817E+02	 7.916E+02	 2.501E+02	 4.565E+01	-6.825E+03	 1.967E+02	 2.215E+04	 7.925E+02	 7.696E-01	 5.164E-01	 3.297E+05	-4.102E+03	 4.088E+03	 3.030E+06	 4.581E+05	-4.537E+05	 1.044E+01	 2.976E-01	 3.968E-01	 1.245E+04	 8.136E+00	 5.137E+00	 1.197E+03	 1.554E+01
    0.9000	 1.113E+01	-0.000E+00	 0.000E+00	 3.356E+00	-9.284E-01	 0.000E+00	 5.000E+00	 4.326E+01	 8.189E+00	 7.963E+02	 1.789E-01	-2.178E-02	 0.000E+00	 2.924E+02	 1.678E+03	 1.736E+02	-1.305E+02	 1.443E+02	 2.916E+03	 6.175E+03	 5.898E+03	 5.512E+03	 5.042E+03	-1.580E+01	 2.517E+03	-7.408E+02	 1.973E+03	 3.350E+02	-4.870E+00	-3.395E+03	 2.610E+03	 9.172E+01	 9.308E+02	 3.553E+02	 3.554E+01	-6.804E+03	 8.131E+02	 3.054E+04	 9.321E+02	 6.743E-01	 1.944E-01	 3.832E+05	-5.054E+03	 1.894E+03	 3.831E+06	 5.880E+05	-1.045E+05	 1.156E+01	 2.794E-01	 3.762E-01	 1.245E+04	 8.195E+00	 4.675E+00	 1.277E+03	 1.622E+01
    1.0000	 1.027E+01	-0.000E+00	 0.000E+00	 2.998E+00	-8.442E-01	 0.000E+00	 5.000E+00	 4.819E+01	 8.261E+00	 8.083E+02	 2.281E-01	-2.739E-02	 0.000E+00	 2.860E+02	 1.499E+03	 1.592E+02	-1.243E+02	 1.623E+02	 2.709E+03	 5.484E+03	 5.228E+03	 4.572E+03	 4.499E+03	-9.242E+00	 1.928E+03	-5.174E+02	 1.735E+03	 4.197E+02	-1.914E+01	-3.403E+03	 2.045E+03	 5.151E+02	 8.516E+02	 4.194E+02	 2.789E+00	-6.812E+03	 2.480E+03	 3.799E+04	 8.531E+02	-7.580E-01	-2.605E-01	 3.799E+05	-4.921E+03	 8.430E+02	 3.968E+06	 4.922E+05	 1.454E+05	 1.051E+01	 3.882E-01	 4.512E-01	 1.245E+04	 8.266E+00	 5.188E+00	 1.335E+03	 1.671E+01
    1.1000	 1.162E+01	-0.000E+00	 0.000E+00	 2.719E+00	-7.436E-01	 0.000E+00	 5.000E+00	 5.317E+01	 8.314E+00	 8.094E+02	 2.750E-01	-3.439E-02	 0.000E+00	 1.722E+02	 1.349E+03	 1.535E+02	-1.330E+02	 1.811E+02	 2.587E+03	 5.083E+03	 4.838E+03	 3.906E+03	 4.405E+03	-3.116E+00	 1.508E+03	-5.027E+02	 1.344E+03	 4.825E+02	-2.459E+01	-3.434E+03	 1.597E+03	 7.881E+02	 3.894E+02	 5.236E+02	-4.162E+01	-6.844E+03	 4.594E+03	 4.626E+04	 3.911E+02	-8.095E-01	-5.380E-01	 3.918E+05	-6.136E+03	 2.537E+03	 4.083E+06	 6.141E+05	 2.937E+04	 1.145E+01	 3.106E-01	 3.916E-01	 1.246E+04	 8.324E+00	 4.793E+00	 1.340E+03	 1.675E+01
    1.2000	 1.076E+01	-0.000E+00	 0.000E+00	 2.559E+00	-7.221E-01	 0.000E+00	 5.000E+00	 5.815E+01	 8.295E+00	 8.053E+02	 3.168E-01	-4.161E-02	 0.000E+00	 1.684E+02	 1.276E+03	 1.561E+02	-1.409E+02	 2.014E+02	 2.686E+03	 5.069E+03	 4.816E+03	 3.720E+03	 4.654E+03	-1.163E+00	 1.319E+03	-5.669E+02	 1.090E+03	 5.347E+02	-3.974E+01	-3.468E+03	 1.396E+03	 9.010E+02	-9.737E+01	 6.342E+02	-5.394E+01	-6.879E+03	 5.808E+03	 5.413E+04	-9.538E+01	-1.676E-02	-6.792E-01	 3.662E+05	-6.323E+03	 6.082E+03	 3.752E+06	 6.489E+05	-3.911E+05	 1.017E+01	 4.073E-01	 4.644E-01	 1.246E+04	 8.309E+00	 5.390E+00	 1.320E+03	 1.659E+01
    1.3000	 1.000E+01	-0.000E+00	 0.000E+00	 2.543E+00	-7.958E-01	 0.000E+00	 5.000E+00	 6.313E+01	 8.334E+00	 8.021E+02	 3.520E-01	-4.747E-02	 0.000E+00	 2.849E+02	 1.278E+03	 1.677E+02	-1.520E+02	 2.224E+02	 3.105E+03	 5.323E+03	 5.032E+03	 3.871E+03	 4.955E+03	-9.769E+00	 1.650E+03	-5.194E+02	 1.047E+03	 6.069E+02	-3.703E+01	-3.486E+03	 1.696E+03	 1.080E+03	-3.470E+02	 6.739E+02	-6.485E+01	-6.898E+03	 6.691E+03	 5.925E+04	-3.443E+02	-8.792E-01	-8.231E-01	 3.379E+05	-5.688E+03	 8.921E+03	 3.295E+06	 6.059E+05	-8.330E+05	 9.153E+00	 4.921E-01	 5.286E-01	 1.246E+04	 8.344E+00	 6.012E+00	 1.305E+03	 1.646E+01
    1.4000	 1.127E+01	-0.000E+00	 0.000E+00	 2.660E+00	-9.030E-01	 0.000E+00	 5.000E+00	 6.815E+01	 8.364E+00	 8.082E+02	 3.793E-01	-5.088E-02	 0.000E+00	 3.983E+02	 1.344E+03	 1.773E+02	-1.703E+02	 2.383E+02	 3.665E+03	 5.578E+03	 5.237E+03	 4.015E+03	 5.136E+03	-2.497E+01	 2.156E+03	-3.212E+02	 1.079E+03	 6.595E+02	-3.143E+01	-3.483E+03	 2.186E+03	 1.273E+03	-3.617E+02	 7.074E+02	-6.234E+01	-6.895E+03	 6.873E+03	 6.327E+04	-3.583E+02	-1.597E+00	-9.313E-01	 3.367E+05	-5.110E+03	 1.036E+04	 3.113E+06	 5.878E+05	-1.125E+06	 1.032E+01	 3.258E-01	 4.145E-01	 1.246E+04	 8.373E+00	 5.352E+00	 1.335E+03	 1.671E+01
    1.5000	 1.121E+01	-0.000E+00	 0.000E+00	 2.861E+00	-1.004E+00	 0.000E+00	 5.000E+00	 7.318E+01	 8.415E+00	 8.181E+02	 3.978E-01	-5.154E-02	 0.000E+00	 4.999E+02	 1.453E+03	 1.799E+02	-1.792E+02	 2.518E+02	 4.024E+03	 5.764E+03	 5.391E+03	 4.156E+03	 5.245E+03	-3.255E+01	 2.127E+03	-1.391E+01	 1.184E+03	 6.717E+02	-4.878E+01	-3.466E+03	 2.220E+03	 1.295E+03	-3.994E+01	 7.764E+02	-3.550E+01	-6.879E+03	 6.200E+03	 6.727E+04	-3.636E+01	-6.403E-01	-9.541E-01	 3.417E+05	-4.095E+03	 1.022E+04	 3.109E+06	 4.575E+05	-1.220E+06	 1.027E+01	 3.312E-01	 4.244E-01	 1.246E+04	 8.414E+00	 5.401E+00	 1.384E+03	 1.712E+01
    1.6000	 1.119E+01	-0.000E+00	 0.000E+00	 3.068E+00	-1.043E+00	 0.000E+00	 5.000E+00	 7.825E+01	 8.478E+00	 8.247E+02	 4.070E-01	-4.993E-02	 0.000E+00	 4.820E+02	 1.553E+03	 1.872E+02	-1.855E+02	 2.628E+02	 4.117E+03	 6.070E+03	 5.688E+03	 4.590E+03	 5.505E+03	-3.290E+01	 1.931E+03	 2.666E+02	 1.377E+03	 6.901E+02	-4.302E+01	-3.452E+03	 2.051E+03	 1.224E+03	 3.730E+02	 7.952E+02	-5.324E+01	-6.865E+03	 6.515E+03	 6.882E+04	 3.765E+02	-5.580E-01	-9.275E-01	 3.544E+05	-3.531E+03	 9.014E+03	 3.227E+06	 3.872E+05	-1.145E+06	 1.037E+01	 3.363E-01	 4.319E-01	 1.246E+04	 8.467E+00	 5.384E+00	 1.418E+03	 1.739E+01
    1.7000	 1.187E+01	-0.000E+00	 0.000E+00	 3.230E+00	-1.032E+00	 0.000E+00	 5.000E+00	 8.334E+01	 8.491E+00	 8.265E+02	 4.071E-01	-4.730E-02	 0.000E+00	 4.109E+02	 1.627E+03	 2.000E+02	-1.822E+02	 2.743E+02	 3.937E+03	 6.497E+03	 6.130E+03	 5.217E+03	 5.938E+03	-3.008E+01	 1.647E+03	 5.103E+02	 1.561E+03	 7.143E+02	-4.324E+01	-3.451E+03	 1.803E+03	 1.127E+03	 7.265E+02	 7.622E+02	-6.050E+01	-6.864E+03	 6.458E+03	 6.789E+04	 7.297E+02	-1.381E+00	-8.530E-01	 3.693E+05	-3.440E+03	 7.180E+03	 3.392E+06	 3.832E+05	-9.102E+05	 1.121E+01	 2.809E-01	 3.855E-01	 1.246E+04	 8.487E+00	 4.994E+00	 1.428E+03	 1.747E+01
    1.8000	 1.176E+01	-0.000E+00	 0.000E+00	 3.348E+00	-1.002E+00	 0.000E+00	 5.000E+00	 8.844E+01	 8.519E+00	 8.246E+02	 3.992E-01	-4.497E-02	 0.000E+00	 3.307E+02	 1.680E+03	 2.089E+02	-1.754E+02	 2.894E+02	 3.663E+03	 6.812E+03	 6.466E+03	 5.565E+03	 6.358E+03	-2.464E+01	 1.602E+03	 7.467E+02	 1.523E+03	 6.980E+02	-5.541E+01	-3.462E+03	 1.801E+03	 1.038E+03	 9.504E+02	 7.597E+02	-3.214E+01	-6.875E+03	 5.426E+03	 6.686E+04	 9.534E+02	-7.788E-01	-6.980E-01	 3.765E+05	-3.355E+03	 5.149E+03	 3.491E+06	 3.770E+05	-6.220E+05	 1.130E+01	 2.831E-01	 3.867E-01	 1.246E+04	 8.519E+00	 4.973E+00	 1.417E+03	 1.739E+01
    1.9000	 1.196E+01	-0.000E+00	 0.000E+00	 3.430E+00	-9.724E-01	 0.000E+00	 5.000E+00	 9.356E+01	 8.552E+00	 8.258E+02	 3.844E-01	-4.371E-02	 0.000E+00	 2.603E+02	 1.714E+03	 2.078E+02	-1.714E+02	 3.068E+02	 3.451E+03	 6.840E+03	 6.513E+03	 5.474E+03	 6.599E+03	-1.807E+01	 1.932E+03	 8.960E+02	 1.235E+03	 6.591E+02	-4.631E+01	-3.475E+03	 2.110E+03	 1.107E+03	 9.287E+02	 7.507E+02	-2.492E+01	-6.887E+03	 5.016E+03	 6.486E+04	 9.318E+02	 5.158E-03	-5.824E-01	 4.090E+05	-3.682E+03	 4.676E+03	 3.906E+06	 3.974E+05	-5.143E+05	 1.167E+01	 2.886E-01	 3.937E-01	 1.246E+04	 8.551E+00	 4.832E+00	 1.424E+03	 1.744E+01
    2.0000	 1.183E+01	-0.000E+00	 0.000E+00	 3.472E+00	-9.655E-01	 0.000E+00	 5.000E+00	 9.871E+01	 8.606E+00	 8.326E+02	 3.636E-01	-4.356E-02	 0.000E+00	 2.629E+02	 1.734E+03	 2.020E+02	-1.613E+02	 3.277E+02	 3.279E+03	 6.726E+03	 6.415E+03	 5.290E+03	 6.774E+03	-1.566E+01	 2.187E+03	 8.886E+02	 8.708E+02	 6.336E+02	-3.435E+01	-3.478E+03	 2.318E+03	 1.367E+03	 6.933E+02	 6.772E+02	-2.881E+01	-6.890E+03	 5.065E+03	 6.039E+04	 6.964E+02	-6.899E-01	-5.416E-01	 4.183E+05	-3.715E+03	 5.472E+03	 4.097E+06	 3.784E+05	-5.573E+05	 1.173E+01	 3.002E-01	 3.988E-01	 1.245E+04	 8.607E+00	 4.839E+00	 1.459E+03	 1.773E+01
    2.1000	 1.161E+01	-0.000E+00	 0.000E+00	 3.447E+00	-9.475E-01	 0.000E+00	 5.000E+00	 1.039E+02	 8.693E+00	 8.425E+02	 3.377E-01	-4.366E-02	 0.000E+00	 2.405E+02	 1.719E+03	 1.992E+02	-1.591E+02	 3.510E+02	 3.206E+03	 6.658E+03	 6.354E+03	 5.318E+03	 7.064E+03	-1.202E+01	 2.340E+03	 7.131E+02	 5.813E+02	 5.949E+02	-2.725E+01	-3.469E+03	 2.420E+03	 1.593E+03	 2.860E+02	 6.062E+02	-2.916E+01	-6.880E+03	 5.078E+03	 5.539E+04	 2.889E+02	-8.863E-01	-4.011E-01	 4.247E+05	-3.410E+03	 7.908E+03	 4.234E+06	 3.180E+05	-8.321E+05	 1.168E+01	 3.168E-01	 4.079E-01	 1.245E+04	 8.693E+00	 4.906E+00	 1.512E+03	 1.815E+01
    2.2000	 1.178E+01	-0.000E+00	 0.000E+00	 3.367E+00	-9.297E-01	 0.000E+00	 5.000E+00	 1.091E+02	 8.752E+00	 8.520E+02	 3.082E-01	-4.275E-02	 0.000E+00	 2.302E+02	 1.679E+03	 1.979E+02	-1.595E+02	 3.740E+02	 3.201E+03	 6.608E+03	 6.304E+03	 5.518E+03	 7.319E+03	-1.125E+01	 2.194E+03	 5.115E+02	 4.821E+02	 5.345E+02	-2.624E+01	-3.452E+03	 2.240E+03	 1.612E+03	-8.111E+01	 5.679E+02	-3.065E+01	-6.862E+03	 5.071E+03	 5.089E+04	-7.855E+01	 8.661E-02	-1.658E-01	 4.306E+05	-2.653E+03	 1.119E+04	 4.340E+06	 2.226E+05	-1.243E+06	 1.199E+01	 3.026E-01	 3.930E-01	 1.245E+04	 8.746E+00	 4.811E+00	 1.564E+03	 1.856E+01
    2.3000	 1.181E+01	-0.000E+00	 0.000E+00	 3.272E+00	-9.333E-01	 0.000E+00	 5.000E+00	 1.144E+02	 8.812E+00	 8.564E+02	 2.769E-01	-3.980E-02	 0.000E+00	 2.732E+02	 1.635E+03	 1.940E+02	-1.576E+02	 3.936E+02	 3.259E+03	 6.460E+03	 6.151E+03	 5.686E+03	 7.254E+03	-1.451E+01	 1.940E+03	 4.488E+02	 6.122E+02	 4.887E+02	-1.672E+01	-3.436E+03	 1.954E+03	 1.456E+03	-2.533E+02	 5.008E+02	-4.724E+01	-6.846E+03	 5.253E+03	 4.542E+04	-2.511E+02	 2.209E-02	-2.533E-02	 4.409E+05	-1.460E+03	 1.404E+04	 4.482E+06	 7.857E+04	-1.616E+06	 1.208E+01	 3.074E-01	 3.964E-01	 1.245E+04	 8.799E+00	 4.804E+00	 1.588E+03	 1.876E+01
    2.4000	 1.210E+01	-0.000E+00	 0.000E+00	 3.195E+00	-9.452E-01	 0.000E+00	 5.000E+00	 1.197E+02	 8.856E+00	 8.582E+02	 2.453E-01	-3.467E-02	 0.000E+00	 3.193E+02	 1.600E+03	 1.857E+02	-1.577E+02	 4.094E+02	 3.366E+03	 6.204E+03	 5.887E+03	 5.737E+03	 6.919E+03	-1.785E+01	 1.933E+03	 5.541E+02	 8.622E+02	 4.495E+02	-7.242E+00	-3.436E+03	 1.930E+03	 1.120E+03	-2.591E+02	 4.258E+02	-4.378E+01	-6.845E+03	 4.572E+03	 3.973E+04	-2.573E+02	-5.082E-01	 2.681E-02	 4.509E+05	 1.789E+02	 1.511E+04	 4.608E+06	-9.896E+04	-1.770E+06	 1.238E+01	 2.951E-01	 3.858E-01	 1.245E+04	 8.848E+00	 4.712E+00	 1.598E+03	 1.883E+01
    2.5000	 1.255E+01	-0.000E+00	 0.000E+00	 3.130E+00	-9.486E-01	 0.000E+00	 5.000E+00	 1.250E+02	 8.908E+00	 8.614E+02	 2.141E-01	-2.822E-02	 0.000E+00	 3.584E+02	 1.570E+03	 1.808E+02	-1.535E+02	 4.251E+02	 3.377E+03	 6.032E+03	 5.715E+03	 5.839E+03	 6.672E+03	-2.050E+01	 2.114E+03	 7.673E+02	 1.087E+03	 3.916E+02	-1.233E+01	-3.458E+03	 2.130E+03	 6.013E+02	-1.553E+02	 3.973E+02	 1.137E+00	-6.867E+03	 2.566E+03	 3.539E+04	-1.538E+02	 2.647E-01	 1.678E-01	 4.718E+05	 2.130E+03	 1.425E+04	 4.859E+06	-3.088E+05	-1.674E+06	 1.276E+01	 2.857E-01	 3.798E-01	 1.245E+04	 8.901E+00	 4.597E+00	 1.616E+03	 1.898E+01
    2.6000	 1.288E+01	-0.000E+00	 0.000E+00	 3.085E+00	-9.160E-01	 0.000E+00	 5.000E+00	 1.304E+02	 8.985E+00	 8.688E+02	 1.845E-01	-2.179E-02	 0.000E+00	 3.298E+02	 1.545E+03	 1.831E+02	-1.448E+02	 4.401E+02	 3.186E+03	 6.077E+03	 5.776E+03	 6.094E+03	 6.652E+03	-1.647E+01	 2.395E+03	 1.025E+03	 1.233E+03	 3.438E+02	-4.128E+00	-3.495E+03	 2.404E+03	 1.031E+02	-5.161E+01	 3.609E+02	 2.672E+01	-6.903E+03	 1.070E+03	 3.102E+04	-5.034E+01	 8.646E-01	 3.420E-01	 4.940E+05	 4.255E+03	 1.145E+04	 5.144E+06	-5.216E+05	-1.305E+06	 1.294E+01	 2.925E-01	 3.868E-01	 1.245E+04	 8.974E+00	 4.571E+00	 1.658E+03	 1.931E+01
    2.7000	 1.339E+01	-0.000E+00	 0.000E+00	 3.087E+00	-8.442E-01	 0.000E+00	 5.000E+00	 1.358E+02	 9.061E+00	 8.794E+02	 1.580E-01	-1.674E-02	 0.000E+00	 2.265E+02	 1.542E+03	 1.898E+02	-1.285E+02	 4.547E+02	 2.731E+03	 6.285E+03	 6.023E+03	 6.402E+03	 6.819E+03	-8.198E+00	 2.486E+03	 1.266E+03	 1.225E+03	 3.205E+02	 9.242E+00	-3.528E+03	 2.477E+03	-1.693E+02	 2.411E+01	 2.870E+02	 2.871E+01	-6.936E+03	 4.294E+02	 2.595E+04	 2.516E+01	 3.191E-01	 4.808E-01	 5.105E+05	 6.147E+03	 7.859E+03	 5.375E+06	-6.949E+05	-8.196E+05	 1.322E+01	 2.889E-01	 3.828E-01	 1.245E+04	 9.052E+00	 4.512E+00	 1.719E+03	 1.978E+01
    2.8000	 1.253E+01	-0.000E+00	 0.000E+00	 3.151E+00	-7.529E-01	 0.000E+00	 5.000E+00	 1.413E+02	 9.138E+00	 8.883E+02	 1.363E-01	-1.377E-02	 0.000E+00	 7.744E+01	 1.565E+03	 1.936E+02	-1.076E+02	 4.720E+02	 2.115E+03	 6.461E+03	 6.253E+03	 6.581E+03	 7.091E+03	 4.580E+00	 2.345E+03	 1.410E+03	 9.774E+02	 2.881E+02	 9.952E+00	-3.536E+03	 2.342E+03	-2.074E+02	 1.095E+02	 2.415E+02	 3.579E+01	-6.944E+03	-4.843E+01	 2.220E+04	 1.103E+02	 5.058E-01	 6.295E-01	 5.001E+05	 7.054E+03	 4.795E+03	 5.273E+06	-7.913E+05	-3.954E+05	 1.218E+01	 3.657E-01	 4.419E-01	 1.245E+04	 9.134E+00	 4.942E+00	 1.772E+03	 2.018E+01
    2.9000	 1.284E+01	-0.000E+00	 0.000E+00	 3.229E+00	-6.705E-01	 0.000E+00	 5.000E+00	 1.468E+02	 9.205E+00	 8.938E+02	 1.206E-01	-1.265E-02	 0.000E+00	-6.020E+01	 1.591E+03	 1.955E+02	-8.787E+01	 4.900E+02	 1.543E+03	 6.557E+03	 6.398E+03	 6.632E+03	 7.363E+03	 1.179E+01	 2.210E+03	 1.431E+03	 5.940E+02	 2.509E+02	 1.432E+01	-3.513E+03	 2.205E+03	-3.843E+01	 1.836E+02	 2.248E+02	 2.983E+01	-6.921E+03	 3.742E+01	 1.992E+04	 1.843E+02	 1.169E+00	 7.829E-01	 4.939E+05	 7.090E+03	 4.401E+03	 5.091E+06	-8.607E+05	-2.979E+05	 1.247E+01	 3.314E-01	 4.163E-01	 1.245E+04	 9.201E+00	 4.862E+00	 1.805E+03	 2.043E+01
    3.0000	 1.289E+01	-0.000E+00	 0.000E+00	 3.274E+00	-6.245E-01	 0.000E+00	 5.000E+00	 1.523E+02	 9.257E+00	 8.975E+02	 1.123E-01	-1.266E-02	 0.000E+00	-1.251E+02	 1.611E+03	 1.920E+02	-7.057E+01	 5.057E+02	 1.160E+03	 6.551E+03	 6.425E+03	 6.590E+03	 7.464E+03	 1.783E+01	 2.196E+03	 1.380E+03	 2.556E+02	 2.408E+02	 2.377E+01	-3.466E+03	 2.175E+03	 2.805E+02	 2.099E+02	 1.867E+02	 1.530E+01	-6.874E+03	 4.495E+02	 1.791E+04	 2.106E+02	 8.659E-01	 7.998E-01	 5.005E+05	 7.220E+03	 6.091E+03	 5.142E+06	-9.261E+05	-4.631E+05	 1.254E+01	 3.320E-01	 4.179E-01	 1.244E+04	 9.257E+00	 4.867E+00	 1.828E+03	 2.060E+01
    3.1000	 1.325E+01	-0.000E+00	 0.000E+00	 3.279E+00	-6.154E-01	 0.000E+00	 5.000E+00	 1.579E+02	 9.327E+00	 9.021E+02	 1.118E-01	-1.313E-02	 0.000E+00	-1.145E+02	 1.613E+03	 1.921E+02	-5.695E+01	 5.197E+02	 9.882E+02	 6.558E+03	 6.447E+03	 6.672E+03	 7.539E+03	 1.520E+01	 2.356E+03	 1.272E+03	 4.321E+01	 2.440E+02	 2.517E+01	-3.421E+03	 2.327E+03	 5.955E+02	 1.740E+02	 1.658E+02	 2.046E+01	-6.829E+03	 3.300E+02	 1.726E+04	 1.747E+02	 4.187E-01	 8.212E-01	 5.150E+05	 7.692E+03	 8.723E+03	 5.304E+06	-1.009E+06	-7.629E+05	 1.289E+01	 3.172E-01	 4.064E-01	 1.244E+04	 9.331E+00	 4.769E+00	 1.856E+03	 2.081E+01
    3.2000	 1.307E+01	-0.000E+00	 0.000E+00	 3.264E+00	-6.199E-01	 0.000E+00	 5.000E+00	 1.635E+02	 9.404E+00	 9.103E+02	 1.195E-01	-1.380E-02	 0.000E+00	-8.798E+01	 1.608E+03	 1.910E+02	-4.881E+01	 5.326E+02	 9.449E+02	 6.529E+03	 6.422E+03	 6.838E+03	 7.572E+03	 1.555E+01	 2.590E+03	 1.169E+03	-5.242E+01	 2.461E+02	 2.093E+01	-3.400E+03	 2.564E+03	 7.334E+02	 1.189E+02	 1.964E+02	 3.650E+01	-6.808E+03	-8.963E+01	 1.901E+04	 1.197E+02	 9.645E-01	 8.347E-01	 5.280E+05	 8.842E+03	 1.030E+04	 5.525E+06	-1.082E+06	-9.677E+05	 1.261E+01	 3.561E-01	 4.356E-01	 1.244E+04	 9.408E+00	 4.917E+00	 1.907E+03	 2.120E+01
    3.3000	 1.369E+01	-0.000E+00	 0.000E+00	 3.254E+00	-6.212E-01	 0.000E+00	 5.000E+00	 1.692E+02	 9.489E+00	 9.205E+02	 1.352E-01	-1.485E-02	 0.000E+00	-5.818E+01	 1.604E+03	 1.914E+02	-3.662E+01	 5.419E+02	 8.373E+02	 6.535E+03	 6.437E+03	 7.065E+03	 7.574E+03	 1.118E+01	 2.640E+03	 1.163E+03	-7.371E+01	 2.724E+02	 1.790E+01	-3.416E+03	 2.619E+03	 7.150E+02	 9.690E+01	 2.315E+02	 3.710E+01	-6.824E+03	-6.266E+00	 2.182E+04	 9.785E+01	 9.326E-01	 7.787E-01	 5.234E+05	 1.019E+04	 9.671E+03	 5.424E+06	-1.165E+06	-1.027E+06	 1.311E+01	 3.139E-01	 3.995E-01	 1.244E+04	 9.490E+00	 4.771E+00	 1.972E+03	 2.167E+01
    3.4000	 1.275E+01	-0.000E+00	 0.000E+00	 3.247E+00	-5.897E-01	 0.000E+00	 5.000E+00	 1.749E+02	 9.566E+00	 9.295E+02	 1.584E-01	-1.670E-02	 0.000E+00	-9.360E+01	 1.602E+03	 1.882E+02	-2.384E+01	 5.474E+02	 5.941E+02	 6.480E+03	 6.403E+03	 7.199E+03	 7.443E+03	 1.403E+01	 2.560E+03	 1.266E+03	-5.922E+01	 3.230E+02	 1.703E+01	-3.460E+03	 2.536E+03	 5.671E+02	 3.149E+01	 2.633E+02	 2.322E+01	-6.868E+03	 5.962E+02	 2.545E+04	 3.259E+01	 2.685E-01	 5.893E-01	 4.971E+05	 1.229E+04	 6.625E+03	 5.080E+06	-1.331E+06	-7.274E+05	 1.207E+01	 3.799E-01	 4.477E-01	 1.244E+04	 9.570E+00	 5.226E+00	 2.030E+03	 2.210E+01
    3.5000	 1.305E+01	-0.000E+00	 0.000E+00	 3.211E+00	-5.250E-01	 0.000E+00	 5.000E+00	 1.806E+02	 9.625E+00	 9.352E+02	 1.874E-01	-1.960E-02	 0.000E+00	-1.601E+02	 1.577E+03	 1.843E+02	-4.503E+00	 5.514E+02	 1.649E+02	 6.334E+03	 6.295E+03	 7.266E+03	 7.299E+03	 1.279E+01	 2.384E+03	 1.346E+03	-1.021E+02	 3.654E+02	 6.562E+00	-3.513E+03	 2.375E+03	 3.823E+02	-4.593E+01	 3.411E+02	 1.890E+01	-6.921E+03	 1.086E+03	 3.099E+04	-4.469E+01	 3.818E-01	 4.338E-01	 4.910E+05	 1.498E+04	 3.445E+03	 4.899E+06	-1.667E+06	-3.227E+05	 1.239E+01	 3.408E-01	 4.196E-01	 1.244E+04	 9.631E+00	 5.123E+00	 2.068E+03	 2.237E+01
    3.6000	 1.316E+01	-0.000E+00	 0.000E+00	 3.124E+00	-4.360E-01	 0.000E+00	 5.000E+00	 1.864E+02	 9.675E+00	 9.382E+02	 2.206E-01	-2.333E-02	 0.000E+00	-2.451E+02	 1.525E+03	 1.775E+02	 1.817E+01	 5.543E+02	-3.672E+02	 6.086E+03	 6.095E+03	 7.190E+03	 7.159E+03	 1.552E+01	 2.323E+03	 1.335E+03	-2.784E+02	 4.085E+02	 1.943E+00	-3.546E+03	 2.322E+03	 3.269E+02	-5.672E+01	 4.308E+02	 8.012E+00	-6.955E+03	 1.820E+03	 3.733E+04	-5.522E+01	 7.541E-01	 2.516E-01	 4.932E+05	 1.480E+04	 7.195E+00	 4.904E+06	-1.515E+06	 1.335E+05	 1.263E+01	 3.240E-01	 4.058E-01	 1.245E+04	 9.681E+00	 5.054E+00	 2.088E+03	 2.251E+01
    3.7000	 1.319E+01	-0.000E+00	 0.000E+00	 3.020E+00	-3.416E-01	 0.000E+00	 5.000E+00	 1.923E+02	 9.726E+00	 9.416E+02	 2.560E-01	-2.739E-02	 0.000E+00	-3.334E+02	 1.468E+03	 1.722E+02	 4.150E+01	 5.550E+02	-9.165E+02	 5.886E+03	 5.943E+03	 7.066E+03	 7.167E+03	 2.244E+01	 2.448E+03	 1.183E+03	-6.202E+02	 4.719E+02	 4.640E+00	-3.544E+03	 2.455E+03	 5.479E+02	 1.034E+02	 4.827E+02	-7.028E+00	-6.953E+03	 2.654E+03	 4.285E+04	 1.053E+02	 5.542E-02	 3.684E-02	 5.037E+05	 1.225E+04	-1.972E+03	 5.009E+06	-1.215E+06	 4.611E+05	 1.267E+01	 3.293E-01	 4.116E-01	 1.245E+04	 9.735E+00	 5.065E+00	 2.110E+03	 2.267E+01
    3.8000	 1.432E+01	-0.000E+00	 0.000E+00	 2.945E+00	-2.583E-01	 0.000E+00	 5.000E+00	 1.981E+02	 9.789E+00	 9.477E+02	 2.918E-01	-3.136E-02	 0.000E+00	-4.185E+02	 1.424E+03	 1.726E+02	 6.252E+01	 5.557E+02	-1.410E+03	 5.840E+03	 5.941E+03	 7.018E+03	 7.360E+03	 2.766E+01	 2.640E+03	 9.348E+02	-1.059E+03	 5.338E+02	-1.687E+00	-3.510E+03	 2.687E+03	 8.651E+02	 4.404E+02	 5.370E+02	-1.705E+00	-6.920E+03	 2.897E+03	 4.846E+04	 4.428E+02	-4.699E-01	-1.147E-01	 5.335E+05	 1.048E+04	-1.800E+03	 5.330E+06	-1.132E+06	 5.304E+05	 1.367E+01	 2.811E-01	 3.746E-01	 1.245E+04	 9.800E+00	 4.727E+00	 2.152E+03	 2.297E+01
    3.9000	 1.382E+01	-0.000E+00	 0.000E+00	 2.940E+00	-2.012E-01	 0.000E+00	 5.000E+00	 2.040E+02	 9.860E+00	 9.561E+02	 3.267E-01	-3.506E-02	 0.000E+00	-4.894E+02	 1.417E+03	 1.786E+02	 7.979E+01	 5.574E+02	-1.799E+03	 5.982E+03	 6.116E+03	 7.124E+03	 7.651E+03	 3.671E+01	 2.742E+03	 6.868E+02	-1.443E+03	 5.807E+02	-1.192E+01	-3.462E+03	 2.841E+03	 1.091E+03	 8.073E+02	 6.204E+02	 5.183E+00	-6.873E+03	 3.082E+03	 5.477E+04	 8.102E+02	 5.046E-02	-1.827E-01	 5.393E+05	 8.637E+03	-1.419E+02	 5.420E+06	-1.053E+06	 3.737E+05	 1.299E+01	 3.349E-01	 4.190E-01	 1.245E+04	 9.868E+00	 5.007E+00	 2.210E+03	 2.338E+01
    4.0000	 1.394E+01	-0.000E+00	 0.000E+00	 3.013E+00	-1.774E-01	 0.000E+00	 5.000E+00	 2.099E+02	 9.934E+00	 9.644E+02	 3.599E-01	-3.870E-02	 0.000E+00	-5.379E+02	 1.451E+03	 1.896E+02	 9.221E+01	 5.572E+02	-2.051E+03	 6.298E+03	 6.453E+03	 7.416E+03	 7.967E+03	 4.355E+01	 2.714E+03	 4.864E+02	-1.657E+03	 6.361E+02	-1.546E+01	-3.425E+03	 2.843E+03	 1.289E+03	 1.055E+03	 6.823E+02	-9.372E+00	-6.837E+03	 3.875E+03	 6.028E+04	 1.058E+03	 4.294E-03	-2.453E-01	 5.522E+05	 7.650E+03	 2.411E+03	 5.527E+06	-1.069E+06	 5.945E+04	 1.297E+01	 3.456E-01	 4.303E-01	 1.245E+04	 9.940E+00	 5.051E+00	 2.267E+03	 2.379E+01
    4.1000	 1.469E+01	-0.000E+00	 0.000E+00	 3.160E+00	-1.860E-01	 0.000E+00	 5.000E+00	 2.159E+02	 9.999E+00	 9.707E+02	 3.908E-01	-4.278E-02	 0.000E+00	-5.578E+02	 1.521E+03	 2.019E+02	 1.010E+02	 5.535E+02	-2.181E+03	 6.670E+03	 6.835E+03	 7.874E+03	 8.252E+03	 4.433E+01	 2.625E+03	 3.046E+02	-1.682E+03	 6.977E+02	-2.390E+01	-3.417E+03	 2.778E+03	 1.486E+03	 1.126E+03	 7.214E+02	-2.048E+01	-6.830E+03	 4.645E+03	 6.487E+04	 1.130E+03	-6.763E-01	-3.137E-01	 5.685E+05	 7.355E+03	 4.520E+03	 5.678E+06	-1.123E+06	-2.519E+05	 1.368E+01	 3.051E-01	 3.987E-01	 1.245E+04	 1.001E+01	 4.824E+00	 2.313E+03	 2.410E+01
    4.2000	 1.328E+01	-0.000E+00	 0.000E+00	 3.344E+00	-2.188E-01	 0.000E+00	 5.000E+00	 2.219E+02	 1.006E+01	 9.754E+02	 4.186E-01	-4.762E-02	 0.000E+00	-5.473E+02	 1.614E+03	 2.076E+02	 1.094E+02	 5.473E+02	-2.237E+03	 6.948E+03	 7.116E+03	 8.362E+03	 8.412E+03	 4.844E+01	 2.601E+03	 1.452E+02	-1.576E+03	 7.423E+02	-3.742E+01	-3.439E+03	 2.772E+03	 1.574E+03	 1.023E+03	 7.786E+02	-2.056E+01	-6.852E+03	 5.197E+03	 6.965E+04	 1.027E+03	-5.066E-01	-3.885E-01	 5.282E+05	 6.039E+03	 4.203E+03	 5.186E+06	-9.726E+05	-3.348E+05	 1.240E+01	 3.760E-01	 4.505E-01	 1.244E+04	 1.007E+01	 5.351E+00	 2.346E+03	 2.433E+01
    4.3000	 1.250E+01	-0.000E+00	 0.000E+00	 3.482E+00	-2.449E-01	 0.000E+00	 5.000E+00	 2.280E+02	 1.012E+01	 9.805E+02	 4.425E-01	-5.300E-02	 0.000E+00	-5.342E+02	 1.683E+03	 2.096E+02	 1.170E+02	 5.371E+02	-2.289E+03	 7.106E+03	 7.278E+03	 8.684E+03	 8.370E+03	 4.694E+01	 2.713E+03	 1.037E+02	-1.425E+03	 7.791E+02	-3.965E+01	-3.475E+03	 2.860E+03	 1.556E+03	 7.259E+02	 8.330E+02	-3.459E+01	-6.889E+03	 6.168E+03	 7.392E+04	 7.305E+02	-3.257E-01	-4.911E-01	 4.976E+05	 5.438E+03	 2.602E+03	 4.687E+06	-8.863E+05	-1.911E+05	 1.200E+01	 3.782E-01	 4.539E-01	 1.244E+04	 1.013E+01	 5.567E+00	 2.383E+03	 2.459E+01
    4.4000	 1.184E+01	-0.000E+00	 0.000E+00	 3.538E+00	-2.399E-01	 0.000E+00	 5.000E+00	 2.341E+02	 1.018E+01	 9.872E+02	 4.616E-01	-5.814E-02	 0.000E+00	-5.416E+02	 1.709E+03	 2.070E+02	 1.269E+02	 5.230E+02	-2.444E+03	 7.075E+03	 7.261E+03	 8.664E+03	 8.037E+03	 4.749E+01	 2.796E+03	 2.002E+02	-1.287E+03	 8.142E+02	-3.971E+01	-3.504E+03	 2.903E+03	 1.512E+03	 2.744E+02	 8.638E+02	-5.126E+01	-6.919E+03	 7.198E+03	 7.698E+04	 2.794E+02	-7.777E-01	-6.579E-01	 4.955E+05	 6.145E+03	-3.966E+02	 4.626E+06	-8.429E+05	 2.065E+05	 1.169E+01	 4.059E-01	 4.762E-01	 1.244E+04	 1.019E+01	 5.745E+00	 2.433E+03	 2.493E+01
    4.5000	 1.242E+01	-0.000E+00	 0.000E+00	 3.511E+00	-1.976E-01	 0.000E+00	 5.000E+00	 2.402E+02	 1.025E+01	 9.937E+02	 4.744E-01	-6.185E-02	 0.000E+00	-5.779E+02	 1.691E+03	 2.005E+02	 1.412E+02	 5.084E+02	-2.749E+03	 6.891E+03	 7.104E+03	 8.409E+03	 7.538E+03	 4.735E+01	 2.781E+03	 3.092E+02	-1.188E+03	 8.306E+02	-4.329E+01	-3.511E+03	 2.858E+03	 1.489E+03	-1.379E+02	 8.937E+02	-5.993E+01	-6.926E+03	 7.867E+03	 7.928E+04	-1.326E+02	-8.973E-01	-8.056E-01	 4.960E+05	 7.005E+03	-3.273E+03	 4.557E+06	-8.486E+05	 6.531E+05	 1.261E+01	 3.199E-01	 4.091E-01	 1.244E+04	 1.025E+01	 5.354E+00	 2.481E+03	 2.526E+01