
Predictions were generated on 28-Nov-2023 at 00:24:22 using OpenFAST, compiled as a 64-bit application using double precision at commit v3.5.1-dirty
 linked with  NWTC Subroutine Library; ElastoDyn; InflowWind; AeroDyn; ServoDyn

Description from the FAST input file: FAST          Certification - Test #18: NREL 5.0 MW Baseline Wind Turbine (Onshore)

Time	Wind1VelX	Wind1VelY	Wind1VelZ	OoPDefl1	IPDefl1	TwstDefl1	BldPitch1	Azimuth	RotSpeed	GenSpeed	TTDspFA	TTDspSS	TTDspTwst	Spn2MLxb1	Spn2MLyb1	RootFxb1	RootFyb1	RootFzb1	RootMxb1	RootMyb1	RootMyc1	RootMyc2	RootMyc3	RootMzb1	RotTorq	LSSGagMya	LSSGagMza	YawBrFxp	YawBrFyp	YawBrFzp	YawBrMxp	YawBrMyp	YawBrMzp	TwrBsFxt	TwrBsFyt	TwrBsFzt	TwrBsMxt	TwrBsMyt	TwrBsMzt	NcIMURAys	NcIMUTAxs	RtFldFxh	RtFldFyh	RtFldFzh	RtFldMxh	RtFldMyh	RtFldMzh	RtVAvgxh	RtFldCp	RtFldCt	RtArea	RtSpeed	RtTSR	GenPwr	GenTq
(s)	(m/s)	(m/s)	(m/s)	(m)	(m)	(deg)	(deg)	(deg)	(rpm)	(rpm)	(m)	(m)	(deg)	(kN-m)	(kN-m)	(kN)	(kN)	(kN)	(kN-m)	(kN-m)	(kN-m)	(kN-m)	(kN-m)	(kN-m)	(kN-m)	(kN-m)	(kN-m)	(kN)	(kN)	(kN)	(kN-m)	(kN-m)	(kN-m)	(kN)	(kN)	(kN)	(kN-m)	(kN-m)	(kN-m)	(deg/s^2)	(m/s^2)	(N)	(N)	(N)	(N-m)	(N-m)	(N-m)	(m/s)	(-)	(-)	(m^2)	(rpm)	(-)	(kW)	(kN-m)
    0.0000	 5.978E+00	 5.115E-01	 2.130E+00	 0.000E+00	 0.000E+00	 0.000E+00	 5.000E+00	 0.000E+00	 8.000E+00	 7.760E+02	 0.000E+00	-0.000E+00	 0.000E+00	 2.595E+00	-7.585E+00	 9.479E+00	-2.405E-01	 1.019E+02	 1.288E+00	 8.235E+01	 8.192E+01	 5.888E+01	 1.502E+02	 1.101E-15	-5.107E-13	-1.935E+03	-6.764E+01	 1.560E+01	-1.272E-01	-3.323E+03	-1.857E+00	-4.092E+02	-3.092E-13	-1.418E+01	 3.535E-02	-6.730E+03	-6.884E-01	-3.279E+02	-3.092E-13	-9.618E-01	-1.731E-01	 1.168E+05	-1.122E+03	 2.361E+03	 5.868E+05	 3.182E+05	-4.006E+04	 5.738E+00	 3.413E-01	 4.652E-01	 1.245E+04	 8.000E+00	 9.189E+00	 1.181E+03	 1.540E+01
    0.1000	 1.015E+01	-0.000E+00	 0.000E+00	 2.028E-01	-3.673E-02	 0.000E+00	 5.000E+00	 4.798E+00	 7.958E+00	 7.577E+02	-1.899E-04	-1.710E-04	 0.000E+00	-8.065E+01	 9.028E+01	 3.480E+01	-2.790E+01	 1.039E+02	 3.696E+02	 7.824E+02	 7.472E+02	 6.772E+02	 7.869E+02	-8.653E-02	 1.100E+03	-1.997E+03	 6.563E+01	 4.175E+00	 3.510E+01	-3.353E+03	 1.027E+03	-6.065E+02	-1.634E+02	 2.533E+01	-9.631E+00	-6.760E+03	 4.989E+00	 6.937E+02	-1.634E+02	 2.547E-01	 9.317E-02	 2.726E+05	-6.897E+03	 1.202E+03	 2.334E+06	 7.486E+05	 1.856E+05	 8.855E+00	 3.679E-01	 4.560E-01	 1.245E+04	 7.968E+00	 5.932E+00	 1.100E+03	 1.468E+01
    0.2000	 9.096E+00	-0.000E+00	 0.000E+00	 7.459E-01	-2.171E-01	 0.000E+00	 5.000E+00	 9.540E+00	 7.885E+00	 7.601E+02	 4.864E-04	-1.322E-03	 0.000E+00	 6.457E+01	 3.890E+02	 6.996E+01	-3.300E+01	 1.056E+02	 7.626E+02	 2.151E+03	 2.076E+03	 1.946E+03	 2.077E+03	 8.573E-01	 1.857E+03	-2.139E+03	 2.797E+02	 1.627E+01	 1.094E+01	-3.420E+03	 1.825E+03	-9.524E+02	-1.523E+02	 4.031E+01	 6.997E+01	-6.828E+03	-2.210E+03	 1.210E+03	-1.523E+02	 1.194E+00	 3.927E-01	 2.276E+05	-5.270E+03	 1.589E+03	 1.780E+06	 6.099E+05	 1.462E+04	 6.996E+00	 5.639E-01	 6.095E-01	 1.246E+04	 7.904E+00	 7.449E+00	 1.110E+03	 1.478E+01
    0.3000	 9.624E+00	-0.000E+00	 0.000E+00	 1.497E+00	-4.003E-01	 0.000E+00	 5.000E+00	 1.431E+01	 8.008E+00	 7.721E+02	 4.667E-03	-3.635E-03	 0.000E+00	 1.086E+02	 7.688E+02	 1.078E+02	-4.931E+01	 1.107E+02	 1.177E+03	 3.581E+03	 3.464E+03	 3.174E+03	 3.429E+03	-8.631E+00	 2.358E+03	-2.186E+03	 3.658E+02	 6.285E+01	 1.651E+01	-3.491E+03	 2.296E+03	-1.056E+03	-3.400E+02	-2.499E+00	 7.591E+01	-6.899E+03	-2.223E+03	 5.121E+02	-3.400E+02	 5.900E-02	 5.584E-01	 1.979E+05	-4.110E+03	 2.179E+03	 1.451E+06	 5.114E+05	-2.181E+05	 7.251E+00	 4.183E-01	 4.934E-01	 1.246E+04	 8.007E+00	 7.282E+00	 1.164E+03	 1.525E+01
    0.4000	 9.667E+00	-0.000E+00	 0.000E+00	 2.263E+00	-5.294E-01	 0.000E+00	 5.000E+00	 1.912E+01	 8.000E+00	 7.869E+02	 1.432E-02	-6.878E-03	 0.000E+00	 3.539E+01	 1.145E+03	 1.294E+02	-6.956E+01	 1.106E+02	 1.435E+03	 4.611E+03	 4.468E+03	 3.911E+03	 4.352E+03	-9.828E+00	 1.998E+03	-2.087E+03	 3.706E+02	 8.415E+01	 3.182E+01	-3.536E+03	 1.889E+03	-1.026E+03	-5.922E+02	 1.425E+01	 1.405E+01	-6.943E+03	-7.810E+01	 2.097E+03	-5.922E+02	 2.075E-01	 6.429E-01	 1.920E+05	-3.400E+03	 2.787E+03	 1.367E+06	 4.409E+05	-4.557E+05	 7.593E+00	 3.428E-01	 4.364E-01	 1.246E+04	 7.999E+00	 6.948E+00	 1.232E+03	 1.584E+01
    0.5000	 9.056E+00	-0.000E+00	 0.000E+00	 2.833E+00	-6.510E-01	 0.000E+00	 5.000E+00	 2.392E+01	 8.020E+00	 7.848E+02	 3.029E-02	-1.040E-02	 0.000E+00	 6.804E+01	 1.428E+03	 1.393E+02	-7.444E+01	 1.123E+02	 1.579E+03	 5.248E+03	 5.090E+03	 4.471E+03	 4.860E+03	-1.053E+01	 9.558E+02	-1.938E+03	 6.342E+02	 9.338E+01	 4.264E+00	-3.540E+03	 9.217E+02	-9.976E+02	-3.891E+02	 8.175E+01	-4.183E+00	-6.947E+03	 1.068E+03	 5.828E+03	-3.890E+02	 1.442E+00	 6.988E-01	 2.023E+05	-3.056E+03	 3.397E+03	 1.439E+06	 4.087E+05	-6.634E+05	 7.651E+00	 3.537E-01	 4.529E-01	 1.246E+04	 8.021E+00	 6.912E+00	 1.222E+03	 1.575E+01
    0.6000	 1.018E+01	-0.000E+00	 0.000E+00	 3.095E+00	-7.232E-01	 0.000E+00	 5.000E+00	 2.874E+01	 8.020E+00	 7.738E+02	 5.281E-02	-1.328E-02	 0.000E+00	 5.337E+01	 1.547E+03	 1.508E+02	-9.824E+01	 1.177E+02	 1.974E+03	 5.613E+03	 5.420E+03	 5.122E+03	 5.087E+03	-1.500E+01	 1.024E+03	-1.854E+03	 1.157E+03	 1.467E+02	 1.435E+01	-3.508E+03	 9.966E+02	-9.062E+02	-8.491E+01	 1.006E+02	-3.189E+01	-6.915E+03	 2.113E+03	 8.949E+03	-8.475E+01	 6.296E-01	 6.515E-01	 2.340E+05	-3.226E+03	 3.978E+03	 1.711E+06	 4.357E+05	-7.651E+05	 9.494E+00	 2.203E-01	 3.402E-01	 1.245E+04	 8.026E+00	 5.574E+00	 1.171E+03	 1.531E+01
    0.7000	 8.635E+00	-0.000E+00	 0.000E+00	 3.079E+00	-8.074E-01	 0.000E+00	 5.000E+00	 3.353E+01	 7.977E+00	 7.692E+02	 8.150E-02	-1.551E-02	 0.000E+00	 2.027E+02	 1.546E+03	 1.530E+02	-1.080E+02	 1.252E+02	 2.399E+03	 5.643E+03	 5.413E+03	 5.462E+03	 4.904E+03	-1.540E+01	 1.425E+03	-1.652E+03	 1.771E+03	 2.080E+02	 2.182E+00	-3.455E+03	 1.462E+03	-7.683E+02	 4.157E+02	 1.302E+02	 1.078E+00	-6.863E+03	 1.347E+03	 1.312E+04	 4.160E+02	-1.179E-01	 4.956E-01	 2.584E+05	-3.134E+03	 3.818E+03	 2.026E+06	 4.395E+05	-7.071E+05	 8.517E+00	 3.597E-01	 4.669E-01	 1.245E+04	 7.992E+00	 6.187E+00	 1.151E+03	 1.513E+01
    0.8000	 1.047E+01	-0.000E+00	 0.000E+00	 2.918E+00	-8.544E-01	 0.000E+00	 5.000E+00	 3.834E+01	 8.052E+00	 7.737E+02	 1.153E-01	-1.770E-02	 0.000E+00	 3.306E+02	 1.469E+03	 1.503E+02	-1.189E+02	 1.328E+02	 2.778E+03	 5.386E+03	 5.123E+03	 5.121E+03	 4.395E+03	-2.953E+01	 2.054E+03	-1.228E+03	 2.071E+03	 2.347E+02	-4.475E+00	-3.408E+03	 2.137E+03	-5.057E+02	 8.185E+02	 2.364E+02	 3.360E+01	-6.815E+03	 5.314E+02	 1.992E+04	 8.192E+02	 6.970E-01	 3.511E-01	 2.894E+05	-3.469E+03	 2.529E+03	 2.437E+06	 4.636E+05	-3.928E+05	 1.058E+01	 2.279E-01	 3.391E-01	 1.246E+04	 8.061E+00	 5.025E+00	 1.171E+03	 1.531E+01
    0.9000	 8.502E+00	-0.000E+00	 0.000E+00	 2.710E+00	-8.274E-01	 0.000E+00	 5.000E+00	 4.318E+01	 8.093E+00	 7.875E+02	 1.521E-01	-2.085E-02	 0.000E+00	 3.276E+02	 1.365E+03	 1.345E+02	-1.298E+02	 1.421E+02	 2.912E+03	 4.817E+03	 4.545E+03	 4.260E+03	 3.793E+03	-1.691E+01	 2.293E+03	-8.411E+02	 1.962E+03	 2.789E+02	-4.575E+00	-3.383E+03	 2.381E+03	-7.570E+01	 8.739E+02	 3.112E+02	 2.748E+01	-6.791E+03	 9.831E+02	 2.625E+04	 8.749E+02	 5.647E-01	 6.142E-03	 2.961E+05	-3.177E+03	 8.531E+02	 2.626E+06	 4.416E+05	-9.346E+04	 8.679E+00	 4.467E-01	 5.153E-01	 1.246E+04	 8.100E+00	 6.154E+00	 1.235E+03	 1.586E+01
    1.0000	 1.044E+01	-0.000E+00	 0.000E+00	 2.493E+00	-7.652E-01	 0.000E+00	 5.000E+00	 4.805E+01	 8.140E+00	 7.961E+02	 1.889E-01	-2.569E-02	 0.000E+00	 3.074E+02	 1.249E+03	 1.319E+02	-1.259E+02	 1.574E+02	 2.736E+03	 4.479E+03	 4.223E+03	 3.639E+03	 3.652E+03	-2.268E+01	 1.719E+03	-6.328E+02	 1.650E+03	 3.487E+02	-2.441E+01	-3.395E+03	 1.836E+03	 3.774E+02	 7.244E+02	 3.443E+02	 9.089E+00	-6.803E+03	 2.171E+03	 3.137E+04	 7.255E+02	-9.679E-01	-2.783E-01	 3.077E+05	-3.713E+03	-6.089E+01	 2.796E+06	 4.637E+05	 1.790E+05	 1.043E+01	 2.752E-01	 3.705E-01	 1.246E+04	 8.145E+00	 5.148E+00	 1.276E+03	 1.621E+01
    1.1000	 8.699E+00	-0.000E+00	 0.000E+00	 2.314E+00	-6.836E-01	 0.000E+00	 5.000E+00	 5.295E+01	 8.163E+00	 7.946E+02	 2.233E-01	-3.185E-02	 0.000E+00	 1.896E+02	 1.156E+03	 1.337E+02	-1.346E+02	 1.729E+02	 2.623E+03	 4.431E+03	 4.185E+03	 3.367E+03	 3.881E+03	-7.633E+00	 1.322E+03	-6.415E+02	 1.336E+03	 3.969E+02	-2.385E+01	-3.431E+03	 1.403E+03	 5.395E+02	 2.989E+02	 4.219E+02	-4.127E+01	-6.840E+03	 4.347E+03	 3.748E+04	 3.001E+02	-6.226E-01	-4.227E-01	 2.956E+05	-3.763E+03	 9.122E+02	 2.672E+06	 4.327E+05	 8.548E+04	 8.463E+00	 4.943E-01	 5.410E-01	 1.246E+04	 8.170E+00	 6.366E+00	 1.269E+03	 1.615E+01
    1.2000	 1.009E+01	-0.000E+00	 0.000E+00	 2.225E+00	-6.740E-01	 0.000E+00	 5.000E+00	 5.783E+01	 8.125E+00	 7.885E+02	 2.538E-01	-3.828E-02	 0.000E+00	 1.871E+02	 1.113E+03	 1.428E+02	-1.423E+02	 1.898E+02	 2.722E+03	 4.580E+03	 4.326E+03	 3.327E+03	 4.211E+03	-1.595E+01	 1.160E+03	-6.684E+02	 1.141E+03	 4.310E+02	-3.349E+01	-3.469E+03	 1.222E+03	 5.935E+02	-1.266E+02	 5.130E+02	-5.844E+01	-6.878E+03	 5.596E+03	 4.348E+04	-1.251E+02	 1.566E-01	-4.562E-01	 2.862E+05	-4.533E+03	 3.793E+03	 2.516E+06	 5.451E+05	-2.856E+05	 9.506E+00	 3.272E-01	 4.151E-01	 1.246E+04	 8.140E+00	 5.647E+00	 1.239E+03	 1.590E+01
    1.3000	 9.162E+00	-0.000E+00	 0.000E+00	 2.257E+00	-7.524E-01	 0.000E+00	 5.000E+00	 6.271E+01	 8.136E+00	 7.836E+02	 2.794E-01	-4.346E-02	 0.000E+00	 3.017E+02	 1.140E+03	 1.439E+02	-1.529E+02	 2.084E+02	 3.119E+03	 4.595E+03	 4.305E+03	 3.232E+03	 4.271E+03	-1.813E+01	 1.465E+03	-6.193E+02	 1.094E+03	 4.851E+02	-3.724E+01	-3.484E+03	 1.508E+03	 7.468E+02	-3.914E+02	 5.348E+02	-5.509E+01	-6.894E+03	 6.024E+03	 4.703E+04	-3.896E+02	-7.643E-01	-6.461E-01	 2.721E+05	-4.163E+03	 6.386E+03	 2.299E+06	 5.439E+05	-7.451E+05	 8.433E+00	 4.286E-01	 5.014E-01	 1.246E+04	 8.147E+00	 6.371E+00	 1.216E+03	 1.570E+01
    1.4000	 9.553E+00	-0.000E+00	 0.000E+00	 2.369E+00	-8.598E-01	 0.000E+00	 5.000E+00	 6.760E+01	 8.154E+00	 7.874E+02	 2.990E-01	-4.620E-02	 0.000E+00	 4.274E+02	 1.204E+03	 1.441E+02	-1.686E+02	 2.227E+02	 3.647E+03	 4.630E+03	 4.294E+03	 3.170E+03	 4.281E+03	-2.954E+01	 1.956E+03	-4.617E+02	 1.090E+03	 5.203E+02	-2.905E+01	-3.478E+03	 1.972E+03	 9.252E+02	-4.693E+02	 5.581E+02	-5.503E+01	-6.888E+03	 6.204E+03	 4.989E+04	-4.669E+02	-1.325E+00	-7.796E-01	 2.662E+05	-3.624E+03	 7.837E+03	 2.196E+06	 4.868E+05	-1.024E+06	 8.815E+00	 3.591E-01	 4.490E-01	 1.246E+04	 8.159E+00	 6.104E+00	 1.234E+03	 1.586E+01
    1.5000	 9.737E+00	-0.000E+00	 0.000E+00	 2.488E+00	-9.437E-01	 0.000E+00	 5.000E+00	 7.250E+01	 8.194E+00	 7.959E+02	 3.112E-01	-4.621E-02	 0.000E+00	 5.231E+02	 1.271E+03	 1.502E+02	-1.775E+02	 2.347E+02	 3.989E+03	 4.855E+03	 4.489E+03	 3.404E+03	 4.463E+03	-3.688E+01	 2.008E+03	-2.150E+02	 1.209E+03	 5.254E+02	-3.602E+01	-3.461E+03	 2.060E+03	 9.229E+02	-2.190E+02	 6.121E+02	-4.031E+01	-6.871E+03	 5.769E+03	 5.276E+04	-2.164E+02	-3.872E-01	-7.349E-01	 2.674E+05	-2.937E+03	 7.976E+03	 2.170E+06	 3.997E+05	-1.109E+06	 9.082E+00	 3.256E-01	 4.249E-01	 1.246E+04	 8.192E+00	 5.948E+00	 1.275E+03	 1.620E+01
    1.6000	 8.994E+00	-0.000E+00	 0.000E+00	 2.588E+00	-9.593E-01	 0.000E+00	 5.000E+00	 7.743E+01	 8.236E+00	 8.021E+02	 3.162E-01	-4.400E-02	 0.000E+00	 4.949E+02	 1.318E+03	 1.595E+02	-1.844E+02	 2.456E+02	 4.066E+03	 5.170E+03	 4.795E+03	 3.947E+03	 4.700E+03	-3.412E+01	 1.799E+03	 3.658E+01	 1.522E+03	 5.449E+02	-3.863E+01	-3.445E+03	 1.895E+03	 7.633E+02	 1.909E+02	 6.140E+02	-4.016E+01	-6.856E+03	 5.535E+03	 5.338E+04	 1.933E+02	-4.788E-01	-6.893E-01	 2.659E+05	-2.420E+03	 6.995E+03	 2.151E+06	 3.323E+05	-1.024E+06	 8.480E+00	 3.984E-01	 4.846E-01	 1.246E+04	 8.227E+00	 6.398E+00	 1.305E+03	 1.645E+01
    1.7000	 1.023E+01	-0.000E+00	 0.000E+00	 2.671E+00	-9.376E-01	 0.000E+00	 5.000E+00	 8.237E+01	 8.231E+00	 8.023E+02	 3.146E-01	-4.078E-02	 0.000E+00	 4.325E+02	 1.354E+03	 1.673E+02	-1.815E+02	 2.559E+02	 3.897E+03	 5.394E+03	 5.034E+03	 4.420E+03	 4.856E+03	-3.699E+01	 1.420E+03	 2.993E+02	 1.822E+03	 5.620E+02	-4.225E+01	-3.441E+03	 1.562E+03	 5.621E+02	 5.849E+02	 5.876E+02	-4.342E+01	-6.852E+03	 5.327E+03	 5.244E+04	 5.871E+02	-1.256E+00	-6.472E-01	 2.760E+05	-2.474E+03	 5.904E+03	 2.230E+06	 3.506E+05	-8.202E+05	 9.849E+00	 2.634E-01	 3.728E-01	 1.246E+04	 8.223E+00	 5.506E+00	 1.306E+03	 1.646E+01
    1.8000	 8.602E+00	-0.000E+00	 0.000E+00	 2.733E+00	-9.092E-01	 0.000E+00	 5.000E+00	 8.731E+01	 8.232E+00	 7.973E+02	 3.067E-01	-3.790E-02	 0.000E+00	 3.737E+02	 1.382E+03	 1.622E+02	-1.762E+02	 2.686E+02	 3.678E+03	 5.344E+03	 5.003E+03	 4.404E+03	 4.845E+03	-2.605E+01	 1.299E+03	 5.659E+02	 1.852E+03	 5.372E+02	-4.311E+01	-3.448E+03	 1.466E+03	 3.971E+02	 8.429E+02	 5.983E+02	-3.781E+01	-6.859E+03	 4.867E+03	 5.185E+04	 8.448E+02	-3.898E-01	-6.118E-01	 2.779E+05	-2.257E+03	 4.308E+03	 2.270E+06	 2.993E+05	-5.664E+05	 8.418E+00	 4.297E-01	 5.139E-01	 1.246E+04	 8.228E+00	 6.446E+00	 1.282E+03	 1.626E+01
    1.9000	 1.049E+01	-0.000E+00	 0.000E+00	 2.748E+00	-8.829E-01	 0.000E+00	 5.000E+00	 9.225E+01	 8.234E+00	 7.947E+02	 2.931E-01	-3.624E-02	 0.000E+00	 3.345E+02	 1.383E+03	 1.598E+02	-1.721E+02	 2.841E+02	 3.518E+03	 5.247E+03	 4.920E+03	 4.155E+03	 4.933E+03	-3.218E+01	 1.598E+03	 7.444E+02	 1.558E+03	 5.002E+02	-3.792E+01	-3.461E+03	 1.752E+03	 5.037E+02	 8.326E+02	 5.886E+02	-2.342E+01	-6.871E+03	 4.225E+03	 4.993E+04	 8.345E+02	 8.471E-02	-5.217E-01	 2.945E+05	-2.472E+03	 3.927E+03	 2.442E+06	 3.423E+05	-4.128E+05	 1.046E+01	 2.413E-01	 3.528E-01	 1.246E+04	 8.236E+00	 5.193E+00	 1.269E+03	 1.615E+01
    2.0000	 8.508E+00	-0.000E+00	 0.000E+00	 2.702E+00	-8.643E-01	 0.000E+00	 5.000E+00	 9.719E+01	 8.261E+00	 7.984E+02	 2.740E-01	-3.589E-02	 0.000E+00	 3.325E+02	 1.361E+03	 1.550E+02	-1.655E+02	 3.031E+02	 3.395E+03	 5.140E+03	 4.825E+03	 3.949E+03	 5.099E+03	-2.133E+01	 1.925E+03	 7.520E+02	 1.187E+03	 4.829E+02	-3.342E+01	-3.465E+03	 2.045E+03	 8.029E+02	 5.780E+02	 5.072E+02	-8.743E+00	-6.875E+03	 3.733E+03	 4.545E+04	 5.799E+02	-7.678E-01	-5.021E-01	 2.955E+05	-2.265E+03	 3.959E+03	 2.500E+06	 2.678E+05	-3.877E+05	 8.651E+00	 4.379E-01	 5.174E-01	 1.246E+04	 8.263E+00	 6.299E+00	 1.287E+03	 1.630E+01
    2.1000	 1.041E+01	-0.000E+00	 0.000E+00	 2.621E+00	-8.389E-01	 0.000E+00	 5.000E+00	 1.022E+02	 8.311E+00	 8.062E+02	 2.503E-01	-3.601E-02	 0.000E+00	 3.187E+02	 1.318E+03	 1.570E+02	-1.629E+02	 3.228E+02	 3.322E+03	 5.124E+03	 4.815E+03	 3.963E+03	 5.420E+03	-2.904E+01	 2.062E+03	 5.999E+02	 8.689E+02	 4.437E+02	-2.153E+01	-3.459E+03	 2.121E+03	 1.056E+03	 1.678E+02	 4.488E+02	-1.888E+01	-6.869E+03	 4.017E+03	 4.103E+04	 1.696E+02	-8.447E-01	-3.164E-01	 3.084E+05	-2.172E+03	 6.086E+03	 2.658E+06	 2.718E+05	-6.420E+05	 1.061E+01	 2.538E-01	 3.590E-01	 1.246E+04	 8.308E+00	 5.164E+00	 1.325E+03	 1.662E+01
    2.2000	 8.743E+00	-0.000E+00	 0.000E+00	 2.542E+00	-8.184E-01	 0.000E+00	 5.000E+00	 1.072E+02	 8.341E+00	 8.127E+02	 2.236E-01	-3.530E-02	 0.000E+00	 3.046E+02	 1.281E+03	 1.501E+02	-1.629E+02	 3.424E+02	 3.295E+03	 4.956E+03	 4.650E+03	 3.974E+03	 5.509E+03	-1.945E+01	 1.843E+03	 4.393E+02	 7.625E+02	 3.847E+02	-1.532E+01	-3.441E+03	 1.860E+03	 1.073E+03	-1.833E+02	 4.198E+02	-3.452E+01	-6.850E+03	 4.436E+03	 3.714E+04	-1.818E+02	 2.459E-01	-1.505E-01	 3.070E+05	-1.426E+03	 8.081E+03	 2.678E+06	 1.554E+05	-9.549E+05	 8.979E+00	 4.232E-01	 4.990E-01	 1.246E+04	 8.334E+00	 6.121E+00	 1.357E+03	 1.689E+01
    2.3000	 1.004E+01	-0.000E+00	 0.000E+00	 2.478E+00	-8.181E-01	 0.000E+00	 5.000E+00	 1.122E+02	 8.362E+00	 8.133E+02	 1.954E-01	-3.269E-02	 0.000E+00	 3.300E+02	 1.249E+03	 1.451E+02	-1.612E+02	 3.592E+02	 3.325E+03	 4.767E+03	 4.459E+03	 4.038E+03	 5.368E+03	-2.710E+01	 1.539E+03	 4.175E+02	 8.709E+02	 3.445E+02	-1.340E+01	-3.424E+03	 1.540E+03	 9.551E+02	-3.314E+02	 3.549E+02	-4.066E+01	-6.833E+03	 4.385E+03	 3.208E+04	-3.302E+02	-7.177E-02	-4.734E-02	 3.151E+05	-4.593E+02	 1.066E+04	 2.778E+06	 6.803E+04	-1.333E+06	 1.026E+01	 2.946E-01	 3.921E-01	 1.246E+04	 8.353E+00	 5.367E+00	 1.360E+03	 1.692E+01
    2.4000	 9.229E+00	-0.000E+00	 0.000E+00	 2.420E+00	-8.312E-01	 0.000E+00	 5.000E+00	 1.172E+02	 8.370E+00	 8.108E+02	 1.666E-01	-2.787E-02	 0.000E+00	 3.710E+02	 1.225E+03	 1.387E+02	-1.613E+02	 3.724E+02	 3.423E+03	 4.594E+03	 4.278E+03	 4.139E+03	 5.100E+03	-2.451E+01	 1.515E+03	 5.430E+02	 1.117E+03	 3.112E+02	-6.512E+00	-3.421E+03	 1.505E+03	 6.372E+02	-3.255E+02	 2.836E+02	-3.440E+01	-6.830E+03	 3.667E+03	 2.682E+04	-3.246E+02	-5.373E-01	 3.275E-03	 3.158E+05	 7.684E+02	 1.140E+04	 2.783E+06	-8.736E+04	-1.476E+06	 9.463E+00	 3.769E-01	 4.623E-01	 1.246E+04	 8.361E+00	 5.827E+00	 1.348E+03	 1.681E+01
    2.5000	 9.482E+00	-0.000E+00	 0.000E+00	 2.362E+00	-8.403E-01	 0.000E+00	 5.000E+00	 1.222E+02	 8.387E+00	 8.105E+02	 1.381E-01	-2.162E-02	 0.000E+00	 4.130E+02	 1.198E+03	 1.378E+02	-1.586E+02	 3.848E+02	 3.467E+03	 4.550E+03	 4.231E+03	 4.360E+03	 4.969E+03	-2.822E+01	 1.735E+03	 7.604E+02	 1.363E+03	 2.587E+02	-3.357E+00	-3.442E+03	 1.727E+03	 1.244E+02	-2.318E+02	 2.605E+02	-3.927E+00	-6.850E+03	 2.066E+03	 2.294E+04	-2.311E+02	 3.463E-01	 1.677E-01	 3.156E+05	 1.928E+03	 1.074E+04	 2.778E+06	-2.200E+05	-1.400E+06	 9.695E+00	 3.506E-01	 4.401E-01	 1.246E+04	 8.379E+00	 5.699E+00	 1.346E+03	 1.680E+01
    2.6000	 9.805E+00	-0.000E+00	 0.000E+00	 2.319E+00	-8.173E-01	 0.000E+00	 5.000E+00	 1.273E+02	 8.421E+00	 8.148E+02	 1.112E-01	-1.535E-02	 0.000E+00	 3.983E+02	 1.176E+03	 1.393E+02	-1.517E+02	 3.962E+02	 3.331E+03	 4.571E+03	 4.264E+03	 4.595E+03	 4.889E+03	-2.819E+01	 1.992E+03	 1.036E+03	 1.557E+03	 2.180E+02	-6.580E-01	-3.477E+03	 1.987E+03	-3.809E+02	-1.278E+02	 2.246E+02	 2.952E+01	-6.884E+03	 3.792E+02	 1.889E+04	-1.272E+02	 7.349E-01	 3.116E-01	 3.166E+05	 2.967E+03	 8.655E+03	 2.754E+06	-3.432E+05	-1.087E+06	 9.971E+00	 3.208E-01	 4.174E-01	 1.246E+04	 8.413E+00	 5.564E+00	 1.368E+03	 1.698E+01
    2.7000	 8.934E+00	-0.000E+00	 0.000E+00	 2.299E+00	-7.556E-01	 0.000E+00	 5.000E+00	 1.323E+02	 8.455E+00	 8.215E+02	 8.703E-02	-1.043E-02	 0.000E+00	 3.167E+02	 1.163E+03	 1.365E+02	-1.382E+02	 4.069E+02	 2.958E+03	 4.533E+03	 4.258E+03	 4.642E+03	 4.762E+03	-2.083E+01	 2.000E+03	 1.320E+03	 1.594E+03	 1.962E+02	 5.359E+00	-3.507E+03	 1.993E+03	-6.948E+02	-3.616E+01	 1.571E+02	 3.978E+01	-6.915E+03	-4.519E+02	 1.430E+04	-3.574E+01	 1.185E-01	 3.458E-01	 3.102E+05	 3.689E+03	 5.965E+03	 2.683E+06	-4.640E+05	-6.688E+05	 9.065E+00	 4.175E-01	 4.947E-01	 1.246E+04	 8.446E+00	 6.143E+00	 1.402E+03	 1.726E+01
    2.8000	 1.028E+01	-0.000E+00	 0.000E+00	 2.288E+00	-6.700E-01	 0.000E+00	 5.000E+00	 1.374E+02	 8.482E+00	 8.254E+02	 6.644E-02	-7.588E-03	 0.000E+00	 2.035E+02	 1.148E+03	 1.346E+02	-1.199E+02	 4.198E+02	 2.435E+03	 4.463E+03	 4.234E+03	 4.512E+03	 4.752E+03	-2.100E+01	 1.775E+03	 1.519E+03	 1.353E+03	 1.574E+02	 1.238E+01	-3.517E+03	 1.766E+03	-7.774E+02	 8.033E+01	 1.275E+02	 2.969E+01	-6.925E+03	-4.311E+02	 1.110E+04	 8.060E+01	 3.806E-01	 4.520E-01	 3.159E+05	 4.451E+03	 4.357E+03	 2.711E+06	-5.580E+05	-3.828E+05	 1.037E+01	 2.830E-01	 3.852E-01	 1.246E+04	 8.475E+00	 5.391E+00	 1.422E+03	 1.743E+01
    2.9000	 8.573E+00	-0.000E+00	 0.000E+00	 2.260E+00	-5.857E-01	 0.000E+00	 5.000E+00	 1.425E+02	 8.495E+00	 8.251E+02	 5.013E-02	-6.660E-03	 0.000E+00	 9.081E+01	 1.125E+03	 1.296E+02	-1.033E+02	 4.346E+02	 1.950E+03	 4.361E+03	 4.175E+03	 4.266E+03	 4.797E+03	-8.384E+00	 1.597E+03	 1.607E+03	 9.327E+02	 1.172E+02	 1.699E+01	-3.497E+03	 1.589E+03	-6.326E+02	 1.991E+02	 1.104E+02	 2.029E+01	-6.904E+03	-2.203E+02	 8.762E+03	 1.993E+02	 1.151E+00	 5.324E-01	 3.085E+05	 4.668E+03	 3.305E+03	 2.647E+06	-6.371E+05	-2.057E+05	 8.654E+00	 4.760E-01	 5.400E-01	 1.246E+04	 8.493E+00	 6.472E+00	 1.420E+03	 1.741E+01
    3.0000	 1.050E+01	-0.000E+00	 0.000E+00	 2.209E+00	-5.320E-01	 0.000E+00	 5.000E+00	 1.476E+02	 8.501E+00	 8.233E+02	 3.894E-02	-6.909E-03	 0.000E+00	 4.379E+01	 1.096E+03	 1.317E+02	-8.723E+01	 4.468E+02	 1.611E+03	 4.374E+03	 4.217E+03	 4.169E+03	 4.947E+03	-1.490E+01	 1.618E+03	 1.569E+03	 5.158E+02	 1.051E+02	 1.921E+01	-3.454E+03	 1.609E+03	-2.496E+02	 2.477E+02	 5.991E+01	 2.053E+01	-6.862E+03	-1.899E+02	 6.021E+03	 2.479E+02	 4.873E-01	 6.150E-01	 3.152E+05	 5.155E+03	 4.340E+03	 2.696E+06	-6.878E+05	-3.649E+05	 1.050E+01	 2.716E-01	 3.745E-01	 1.246E+04	 8.503E+00	 5.338E+00	 1.411E+03	 1.734E+01
    3.1000	 8.520E+00	-0.000E+00	 0.000E+00	 2.155E+00	-5.135E-01	 0.000E+00	 5.000E+00	 1.527E+02	 8.518E+00	 8.238E+02	 3.354E-02	-7.529E-03	 0.000E+00	 4.731E+01	 1.073E+03	 1.269E+02	-7.641E+01	 4.573E+02	 1.467E+03	 4.278E+03	 4.134E+03	 4.112E+03	 4.948E+03	-6.505E+00	 1.820E+03	 1.453E+03	 2.696E+02	 1.011E+02	 2.368E+01	-3.407E+03	 1.795E+03	 8.741E+01	 1.862E+02	 2.446E+01	 2.223E+01	-6.814E+03	-2.078E+02	 4.430E+03	 1.864E+02	 1.482E-01	 6.119E-01	 3.060E+05	 5.138E+03	 5.157E+03	 2.608E+06	-7.203E+05	-5.330E+05	 8.484E+00	 4.995E-01	 5.572E-01	 1.246E+04	 8.521E+00	 6.623E+00	 1.414E+03	 1.736E+01
    3.2000	 1.038E+01	-0.000E+00	 0.000E+00	 2.112E+00	-5.114E-01	 0.000E+00	 5.000E+00	 1.578E+02	 8.545E+00	 8.280E+02	 3.437E-02	-8.126E-03	 0.000E+00	 7.864E+01	 1.050E+03	 1.241E+02	-6.731E+01	 4.666E+02	 1.400E+03	 4.146E+03	 4.008E+03	 4.171E+03	 4.876E+03	-1.680E+01	 1.981E+03	 1.349E+03	 2.019E+02	 8.755E+01	 2.343E+01	-3.382E+03	 1.946E+03	 2.059E+02	 7.453E+01	 4.868E+01	 2.752E+01	-6.789E+03	-3.233E+02	 5.177E+03	 7.470E+01	 7.378E-01	 6.661E-01	 3.094E+05	 5.686E+03	 6.600E+03	 2.622E+06	-7.525E+05	-8.311E+05	 1.023E+01	 2.874E-01	 3.876E-01	 1.246E+04	 8.548E+00	 5.510E+00	 1.435E+03	 1.753E+01
    3.3000	 8.791E+00	-0.000E+00	 0.000E+00	 2.074E+00	-4.995E-01	 0.000E+00	 5.000E+00	 1.630E+02	 8.574E+00	 8.329E+02	 4.141E-02	-8.785E-03	 0.000E+00	 8.516E+01	 1.033E+03	 1.184E+02	-5.802E+01	 4.727E+02	 1.289E+03	 4.001E+03	 3.873E+03	 4.219E+03	 4.624E+03	-9.795E+00	 1.946E+03	 1.424E+03	 2.775E+02	 9.976E+01	 1.729E+01	-3.389E+03	 1.915E+03	 8.042E+01	-2.930E+01	 6.696E+01	 3.118E+01	-6.797E+03	-3.442E+02	 6.560E+03	-2.910E+01	 7.773E-01	 5.744E-01	 3.014E+05	 5.808E+03	 6.175E+03	 2.525E+06	-7.648E+05	-8.548E+05	 8.578E+00	 4.708E-01	 5.368E-01	 1.246E+04	 8.575E+00	 6.593E+00	 1.461E+03	 1.774E+01
    3.4000	 9.975E+00	-0.000E+00	 0.000E+00	 2.036E+00	-4.641E-01	 0.000E+00	 5.000E+00	 1.681E+02	 8.595E+00	 8.356E+02	 5.402E-02	-9.854E-03	 0.000E+00	 5.474E+01	 1.011E+03	 1.192E+02	-4.581E+01	 4.757E+02	 1.057E+03	 3.993E+03	 3.885E+03	 4.372E+03	 4.451E+03	-1.430E+01	 1.788E+03	 1.619E+03	 3.767E+02	 1.336E+02	 1.343E+01	-3.430E+03	 1.756E+03	-1.722E+02	-1.413E+02	 8.204E+01	 2.171E+01	-6.837E+03	 6.873E+01	 8.475E+03	-1.410E+02	 7.659E-02	 4.687E-01	 2.998E+05	 6.519E+03	 5.016E+03	 2.488E+06	-8.064E+05	-7.551E+05	 9.643E+00	 3.273E-01	 4.225E-01	 1.246E+04	 8.596E+00	 5.878E+00	 1.475E+03	 1.786E+01
    3.5000	 9.298E+00	-0.000E+00	 0.000E+00	 2.003E+00	-4.114E-01	 0.000E+00	 5.000E+00	 1.733E+02	 8.601E+00	 8.352E+02	 7.124E-02	-1.166E-02	 0.000E+00	-2.037E+00	 9.924E+02	 1.193E+02	-3.028E+01	 4.787E+02	 7.138E+02	 3.984E+03	 3.907E+03	 4.517E+03	 4.363E+03	-8.775E+00	 1.655E+03	 1.816E+03	 3.894E+02	 1.599E+02	 9.803E+00	-3.483E+03	 1.623E+03	-4.921E+02	-2.470E+02	 1.373E+02	 1.112E+01	-6.891E+03	 5.930E+02	 1.206E+04	-2.467E+02	 4.340E-01	 3.819E-01	 2.931E+05	 7.206E+03	 2.491E+03	 2.395E+06	-8.863E+05	-3.974E+05	 8.873E+00	 4.049E-01	 4.878E-01	 1.246E+04	 8.605E+00	 6.395E+00	 1.473E+03	 1.784E+01
    3.6000	 9.412E+00	-0.000E+00	 0.000E+00	 1.981E+00	-3.496E-01	 0.000E+00	 5.000E+00	 1.784E+02	 8.605E+00	 8.338E+02	 9.216E-02	-1.426E-02	 0.000E+00	-7.022E+01	 9.759E+02	 1.179E+02	-1.160E+01	 4.805E+02	 2.935E+02	 3.936E+03	 3.895E+03	 4.562E+03	 4.352E+03	-7.713E+00	 1.673E+03	 1.927E+03	 2.355E+02	 1.887E+02	 4.740E+00	-3.523E+03	 1.646E+03	-6.603E+02	-2.866E+02	 1.989E+02	 9.684E+00	-6.931E+03	 9.240E+02	 1.621E+04	-2.862E+02	 7.747E-01	 2.885E-01	 2.848E+05	 8.101E+03	-1.088E+02	 2.307E+06	-1.030E+06	 2.216E+03	 8.891E+00	 3.879E-01	 4.721E-01	 1.246E+04	 8.612E+00	 6.388E+00	 1.465E+03	 1.778E+01
    3.7000	 9.871E+00	-0.000E+00	 0.000E+00	 1.956E+00	-2.828E-01	 0.000E+00	 5.000E+00	 1.836E+02	 8.613E+00	 8.339E+02	 1.157E-01	-1.737E-02	 0.000E+00	-1.420E+02	 9.587E+02	 1.148E+02	 8.682E+00	 4.792E+02	-1.632E+02	 3.842E+03	 3.842E+03	 4.444E+03	 4.377E+03	-7.130E+00	 1.803E+03	 1.918E+03	-1.001E+02	 2.351E+02	 2.625E+00	-3.529E+03	 1.787E+03	-5.513E+02	-1.910E+02	 2.277E+02	 7.957E+00	-6.937E+03	 1.290E+03	 1.973E+04	-1.904E+02	 4.580E-02	 1.339E-01	 2.831E+05	 8.499E+03	-1.875E+03	 2.261E+06	-1.079E+06	 3.114E+05	 9.343E+00	 3.280E-01	 4.250E-01	 1.246E+04	 8.620E+00	 6.084E+00	 1.466E+03	 1.779E+01
    3.8000	 8.877E+00	-0.000E+00	 0.000E+00	 1.914E+00	-2.126E-01	 0.000E+00	 5.000E+00	 1.888E+02	 8.630E+00	 8.364E+02	 1.405E-01	-2.058E-02	 0.000E+00	-2.156E+02	 9.326E+02	 1.097E+02	 2.853E+01	 4.780E+02	-6.185E+02	 3.700E+03	 3.740E+03	 4.249E+03	 4.462E+03	-8.373E-01	 1.909E+03	 1.750E+03	-5.591E+02	 2.743E+02	 2.111E+00	-3.498E+03	 1.917E+03	-2.719E+02	 7.447E+01	 2.675E+02	 1.683E+00	-6.906E+03	 1.789E+03	 2.369E+04	 7.526E+01	-1.756E-01	-8.608E-03	 2.797E+05	 7.337E+03	-2.443E+03	 2.224E+06	-9.263E+05	 4.539E+05	 8.424E+00	 4.410E-01	 5.165E-01	 1.246E+04	 8.636E+00	 6.761E+00	 1.479E+03	 1.789E+01
    3.9000	 1.032E+01	-0.000E+00	 0.000E+00	 1.864E+00	-1.441E-01	 0.000E+00	 5.000E+00	 1.940E+02	 8.648E+00	 8.396E+02	 1.655E-01	-2.362E-02	 0.000E+00	-2.855E+02	 9.009E+02	 1.087E+02	 4.686E+01	 4.773E+02	-1.044E+03	 3.621E+03	 3.698E+03	 4.179E+03	 4.683E+03	-4.176E+00	 1.899E+03	 1.433E+03	-1.030E+03	 3.004E+02	-3.540E+00	-3.449E+03	 1.953E+03	 9.331E+01	 4.730E+02	 3.297E+02	-1.814E+00	-6.858E+03	 2.213E+03	 2.823E+04	 4.740E+02	 2.095E-01	-4.608E-02	 2.847E+05	 6.417E+03	-1.614E+03	 2.247E+06	-8.040E+05	 3.188E+05	 9.856E+00	 2.787E-01	 3.840E-01	 1.246E+04	 8.654E+00	 5.790E+00	 1.496E+03	 1.803E+01
    4.0000	 8.549E+00	-0.000E+00	 0.000E+00	 1.822E+00	-9.069E-02	 0.000E+00	 5.000E+00	 1.991E+02	 8.660E+00	 8.413E+02	 1.898E-01	-2.653E-02	 0.000E+00	-3.455E+02	 8.773E+02	 1.079E+02	 6.066E+01	 4.746E+02	-1.360E+03	 3.608E+03	 3.713E+03	 4.175E+03	 4.844E+03	 5.982E+00	 1.789E+03	 1.146E+03	-1.377E+03	 3.429E+02	-1.286E+01	-3.403E+03	 1.893E+03	 4.338E+02	 8.270E+02	 3.597E+02	-5.073E+00	-6.812E+03	 2.638E+03	 3.185E+04	 8.282E+02	-7.858E-02	-1.563E-01	 2.796E+05	 5.054E+03	-2.711E+02	 2.201E+06	-6.866E+05	 1.154E+05	 8.119E+00	 4.890E-01	 5.559E-01	 1.246E+04	 8.665E+00	 7.038E+00	 1.506E+03	 1.810E+01
    4.1000	 1.050E+01	-0.000E+00	 0.000E+00	 1.806E+00	-6.679E-02	 0.000E+00	 5.000E+00	 2.043E+02	 8.664E+00	 8.410E+02	 2.127E-01	-2.963E-02	 0.000E+00	-3.624E+02	 8.680E+02	 1.112E+02	 7.159E+01	 4.700E+02	-1.547E+03	 3.660E+03	 3.781E+03	 4.328E+03	 4.928E+03	-2.291E+00	 1.695E+03	 9.201E+02	-1.496E+03	 3.857E+02	-1.954E+01	-3.384E+03	 1.825E+03	 6.867E+02	 9.647E+02	 3.869E+02	-1.464E+01	-6.793E+03	 3.257E+03	 3.519E+04	 9.660E+02	-7.326E-01	-2.322E-01	 2.847E+05	 4.986E+03	 1.278E+03	 2.228E+06	-6.996E+05	-2.055E+05	 1.004E+01	 2.618E-01	 3.701E-01	 1.246E+04	 8.669E+00	 5.694E+00	 1.504E+03	 1.809E+01
    4.2000	 8.536E+00	-0.000E+00	 0.000E+00	 1.821E+00	-7.045E-02	 0.000E+00	 5.000E+00	 2.095E+02	 8.665E+00	 8.398E+02	 2.334E-01	-3.323E-02	 0.000E+00	-3.469E+02	 8.778E+02	 1.093E+02	 7.992E+01	 4.648E+02	-1.616E+03	 3.640E+03	 3.767E+03	 4.495E+03	 4.791E+03	 6.700E+00	 1.708E+03	 8.245E+02	-1.408E+03	 4.110E+02	-2.565E+01	-3.395E+03	 1.838E+03	 7.192E+02	 8.237E+02	 4.425E+02	-2.160E+01	-6.805E+03	 3.847E+03	 3.913E+04	 8.252E+02	-2.449E-01	-3.304E-01	 2.801E+05	 4.504E+03	 1.800E+03	 2.184E+06	-6.680E+05	-3.190E+05	 8.127E+00	 4.843E-01	 5.558E-01	 1.246E+04	 8.674E+00	 7.038E+00	 1.498E+03	 1.804E+01
    4.3000	 1.035E+01	-0.000E+00	 0.000E+00	 1.858E+00	-8.023E-02	 0.000E+00	 5.000E+00	 2.147E+02	 8.673E+00	 8.400E+02	 2.510E-01	-3.738E-02	 0.000E+00	-3.230E+02	 8.954E+02	 1.118E+02	 8.888E+01	 4.563E+02	-1.683E+03	 3.694E+03	 3.826E+03	 4.747E+03	 4.645E+03	-2.445E+00	 1.812E+03	 8.320E+02	-1.227E+03	 4.347E+02	-3.231E+01	-3.432E+03	 1.923E+03	 6.764E+02	 4.720E+02	 4.898E+02	-2.349E+01	-6.842E+03	 4.349E+03	 4.244E+04	 4.738E+02	-1.513E-01	-3.837E-01	 2.853E+05	 4.940E+03	 1.422E+03	 2.220E+06	-7.228E+05	-3.240E+05	 9.962E+00	 2.676E-01	 3.768E-01	 1.246E+04	 8.682E+00	 5.748E+00	 1.498E+03	 1.804E+01
    4.4000	 8.843E+00	-0.000E+00	 0.000E+00	 1.902E+00	-7.161E-02	 0.000E+00	 5.000E+00	 2.199E+02	 8.688E+00	 8.420E+02	 2.646E-01	-4.157E-02	 0.000E+00	-3.377E+02	 9.186E+02	 1.132E+02	 9.899E+01	 4.444E+02	-1.842E+03	 3.786E+03	 3.932E+03	 4.933E+03	 4.501E+03	 6.506E+00	 1.912E+03	 9.342E+02	-1.093E+03	 4.687E+02	-3.383E+01	-3.472E+03	 1.987E+03	 6.012E+02	 5.018E+01	 4.997E+02	-3.322E+01	-6.882E+03	 5.076E+03	 4.431E+04	 5.213E+01	-6.866E-01	-4.980E-01	 2.836E+05	 4.862E+03	-1.102E+02	 2.207E+06	-6.984E+05	-6.359E+04	 8.536E+00	 4.234E-01	 5.101E-01	 1.246E+04	 8.695E+00	 6.718E+00	 1.510E+03	 1.813E+01
    4.5000	 9.912E+00	-0.000E+00	 0.000E+00	 1.950E+00	-3.409E-02	 0.000E+00	 5.000E+00	 2.252E+02	 8.707E+00	 8.450E+02	 2.736E-01	-4.488E-02	 0.000E+00	-3.949E+02	 9.369E+02	 1.178E+02	 1.131E+02	 4.320E+02	-2.164E+03	 3.925E+03	 4.098E+03	 5.113E+03	 4.473E+03	 3.891E+00	 1.917E+03	 1.005E+03	-1.058E+03	 4.840E+02	-3.216E+01	-3.499E+03	 1.959E+03	 5.115E+02	-2.871E+02	 5.221E+02	-4.884E+01	-6.909E+03	 5.885E+03	 4.595E+04	-2.851E+02	-6.901E-01	-5.098E-01	 2.877E+05	 5.180E+03	-2.165E+03	 2.252E+06	-7.285E+05	 2.781E+05	 9.656E+00	 2.991E-01	 4.043E-01	 1.246E+04	 8.710E+00	 5.949E+00	 1.525E+03	 1.826E+01